22
Lattice="5.612 0.0 0.0 -2.806 4.860134566 0.0 0.0 0.0 25.61561" Properties=species:S:1:pos:R:3:forces:R:3 energy=-140.1588121 pbc="T T T"
C       -1.45580000       4.06420000      16.42973000       0.04936900       0.02535100       0.08416400
C        1.41569000       4.06314000      16.43264000      -0.05207000       0.03092200       0.07064000
C        2.78352000       1.68965000      16.43172000       0.00374800      -0.06067300       0.07931100
O       -1.41916000       4.08675000      17.61289000      -0.01474100      -0.01492800      -0.19228200
O        1.37818000       4.08671000      17.61561000       0.00389500      -0.01235800      -0.19414000
O        2.78432000       1.64656000      17.61477000      -0.00360200       0.01171000      -0.19414400
Pt       1.40464000       2.42625000       8.00988000       0.00656800      -0.01310800      -0.04120000
Pt       2.79805000       3.24709000      10.30475000       0.00470100      -0.00611400       0.12974700
Pt       1.38598000       4.06588000      12.60427000      -0.01246600       0.02173200      -0.04763800
Pt       1.37615000       2.45837000      15.05393000       0.00575300       0.01285500       0.03821300
Pt       2.79051000       1.63215000      12.60416000      -0.01003000       0.00947200      -0.04872800
Pt       4.20268000       0.81807000      10.30982000       0.00328500      -0.00124500       0.11327700
Pt       1.39322000       0.81809000      10.30976000       0.00733100      -0.00415500       0.11618500
Pt      -1.39877000       2.42633000       8.01047000       0.00791300      -0.00977200      -0.04147800
Pt       5.58752000       0.03557000      15.05243000      -0.00097300      -0.02821100       0.03612400
Pt      -2.80282000       4.85891000       8.00995000       0.00941800      -0.00433700      -0.04276100
Pt      -0.00803000       3.24549000      10.30989000       0.00484500      -0.00275800       0.11206700
Pt      -1.41660000       4.06599000      12.60408000      -0.00511400       0.02134800      -0.04933600
Pt       4.18775000       2.45727000      15.05189000      -0.00887200       0.02485300       0.02997800
Pt       2.78154000       0.02837000      15.01097000       0.00391000      -0.00306900      -0.01395200
Pt      -0.01557000       1.63546000      12.66034000      -0.00215400       0.00193900       0.16601700
Pt       0.00372000       4.85640000       8.00000000      -0.00071300       0.00054700      -0.11006400
22
Lattice="5.612 0.0 0.0 -2.806 4.860134566 0.0 0.0 0.0 25.61479" Properties=species:S:1:pos:R:3:forces:R:3 energy=-140.16362647 pbc="T T T"
C       -1.45230000       4.06597000      16.43058000       0.00605500      -0.00097900       0.00646800
C        1.41235000       4.06490000      16.43302000      -0.00969900       0.00662800       0.00546900
C        2.78377000       1.68539000      16.43222000       0.00426300      -0.01240200       0.00589700
O       -1.41970000       4.08579000      17.61245000       0.00726600      -0.00123600      -0.02653000
O        1.37849000       4.08589000      17.61479000      -0.01562800       0.00182200      -0.03160000
O        2.78427000       1.64701000      17.61404000      -0.00106600      -0.01151200      -0.03258200
Pt       1.40468000       2.42646000       8.01085000       0.00495700      -0.01295100       0.01110400
Pt       2.79772000       3.24743000      10.31386000       0.00331700      -0.00077500       0.03449700
Pt       1.38552000       4.06622000      12.60573000      -0.01100000       0.02019800       0.01018900
Pt       1.37795000       2.45946000      15.06115000      -0.03991900      -0.02518200      -0.04796600
Pt       2.79042000       1.63214000      12.60565000      -0.00862900       0.01134500       0.00558900
Pt       4.20338000       0.81864000      10.31887000      -0.00565000      -0.00322500       0.03600300
Pt       1.39232000       0.81862000      10.31864000       0.00815400      -0.00696100       0.04021500
Pt      -1.39910000       2.42660000       8.01125000       0.00946000      -0.00945400       0.01224400
Pt       5.58787000       0.03322000      15.05971000       0.00479700       0.02973700      -0.04994600
Pt      -2.80308000       4.85906000       8.01084000       0.01012000      -0.00256700       0.00953100
Pt      -0.00815000       3.24469000      10.31888000       0.00228200       0.00185000       0.03569600
Pt      -1.41660000       4.06628000      12.60557000      -0.00426800       0.02089200       0.00846000
Pt       4.18698000       2.45826000      15.05847000       0.03717500      -0.01144500      -0.04245900
Pt       2.78189000       0.02854000      15.01612000       0.00127000       0.00348800      -0.07503600
Pt      -0.01561000       1.63555000      12.67158000      -0.00223100       0.00195900       0.14238200
Pt       0.00364000       4.85661000       8.00000000      -0.00102500       0.00077000      -0.05762300
22
Lattice="5.612 0.0 0.0 -2.806 4.860134566 0.0 0.0 0.0 25.61475" Properties=species:S:1:pos:R:3:forces:R:3 energy=-140.16310517 pbc="T T T"
C       -1.45274000       4.06579000      16.43054000       0.01177700       0.00212700       0.00372700
C        1.41279000       4.06473000      16.43307000      -0.01615600       0.00944800      -0.00174500
C        2.78373000       1.68594000      16.43228000       0.00375000      -0.01872200       0.00072700
O       -1.41977000       4.08590000      17.61237000       0.00582600      -0.00238100      -0.02279200
O        1.37863000       4.08595000      17.61475000      -0.01567600       0.00078900      -0.02398700
O        2.78427000       1.64712000      17.61402000      -0.00188200      -0.01114100      -0.02580400
Pt       1.40468000       2.42647000       8.01062000       0.00500000      -0.01347200       0.00842600
Pt       2.79779000       3.24733000      10.31331000       0.00261300      -0.00054800       0.03494300
Pt       1.38563000       4.06612000      12.60524000      -0.01130100       0.02141800       0.01145500
Pt       1.37832000       2.45970000      15.06103000      -0.05128200      -0.03230300      -0.05204500
Pt       2.79046000       1.63217000      12.60517000      -0.00919800       0.00954600       0.00661500
Pt       4.20322000       0.81853000      10.31816000      -0.00075500      -0.00295900       0.03644100
Pt       1.39254000       0.81850000      10.31797000       0.00786500      -0.00424600       0.04163500
Pt      -1.39903000       2.42654000       8.01108000       0.00854400      -0.00946400       0.00915300
Pt       5.58774000       0.03282000      15.05960000       0.00677000       0.04363700      -0.05207500
Pt      -2.80309000       4.85903000       8.01063000       0.01004600      -0.00352700       0.00685300
Pt      -0.00812000       3.24488000      10.31822000       0.00223100      -0.00065000       0.03551700
Pt      -1.41659000       4.06622000      12.60507000      -0.00398900       0.02082700       0.00949900
Pt       4.18640000       2.45844000      15.05848000       0.04723800      -0.01763500      -0.04884600
Pt       2.78180000       0.02845000      15.01630000       0.00180400       0.00334900      -0.08176800
Pt      -0.01564000       1.63549000      12.66954000      -0.00159200       0.00561000       0.16511200
Pt       0.00366000       4.85659000       8.00000000      -0.00163400       0.00029800      -0.06104100
