22
Lattice="5.611995395 0.0 0.0 2.805997698 4.860130578 0.0 0.0 0.0 29.886262579" Properties=species:S:1:pos:R:3:forces:R:3 energy=-140.28709433 pbc="T T T"
C        5.61200000       2.43007000      18.49926000       0.00000000      -1.40730600      -2.70337400
C        2.80600000       0.00000000      18.72826000      -0.00000000       1.00177400       0.68416800
C        2.80600000       3.24009000      18.27026000       0.00000000       0.49615700      -3.57456500
O        2.80600000       3.24009000      19.42826000       0.00000000       0.05784500       3.27420700
O        5.61200000       2.43007000      19.65726000      -0.00000000      -0.77083900       1.23491100
O        2.80600000       0.00000000      19.88626000      -0.00000000       0.74174700      -0.32360700
Pt       4.20900000       2.43007000      16.87326000       0.59825100      -0.33288700       1.27123500
Pt       1.40300000       2.43007000      16.87326000      -0.59825100      -0.33288700       1.27123500
Pt       2.80600000       0.00000000      16.87326000      -0.00000000       0.51828100       0.47081300
Pt       0.00000000       0.00000000      16.87326000       0.00000000      -0.19045700       0.20625700
Pt       4.20900000       4.05011000      14.58218000       0.15406200       0.15198600      -0.55537000
Pt       0.00000000       0.00000000      10.00000000       0.00000000       0.01442900      -0.19468300
Pt       5.61200000       1.62004000      14.58218000       0.00000000      -0.06801200      -0.20250500
Pt       5.61200000       3.24009000      12.29109000       0.00000000       0.08329300       0.11257100
Pt       2.80600000       3.24009000      12.29109000       0.00000000       0.00915000       0.10689400
Pt       4.20900000       0.81002000      12.29109000       0.01326700      -0.04447100       0.07642600
Pt       1.40300000       0.81002000      12.29109000      -0.01326700      -0.04447100       0.07642600
Pt       4.20900000       2.43007000      10.00000000       0.03551900      -0.01517000      -0.13510500
Pt       1.40300000       2.43007000      10.00000000      -0.03551900      -0.01517000      -0.13510500
Pt       2.80600000       0.00000000      10.00000000       0.00000000       0.02362600      -0.22131300
Pt       2.80600000       1.62004000      14.58218000       0.00000000      -0.02860300      -0.18414800
Pt       7.01499000       4.05011000      14.58218000      -0.15406200       0.15198600      -0.55537000
22
Lattice="5.611995395 0.0 0.0 2.805997698 4.860130578 0.0 0.0 0.0 29.886262579" Properties=species:S:1:pos:R:3:forces:R:3 energy=-140.15788928 pbc="T T T"
C        0.00000000       0.00000000      18.72826000       0.00000000      -0.02006300      -0.16788000
C        4.20900000       2.43007000      18.72826000      -0.01737500       0.01003100      -0.16788000
C        1.40300000       2.43007000      18.72826000       0.01737500       0.01003100      -0.16788000
O        1.40300000       2.43007000      19.88626000      -0.00716500      -0.00413700       0.21891500
O        0.00000000       0.00000000      19.88626000       0.00000000       0.00827400       0.21891500
O        4.20900000       2.43007000      19.88626000       0.00716500      -0.00413700       0.21891500
Pt       4.20900000       2.43007000      16.87326000       0.02292200      -0.01323400       0.55036800
Pt       1.40300000       2.43007000      16.87326000      -0.02292200      -0.01323400       0.55036800
Pt       2.80600000       0.00000000      16.87326000       0.00000000      -0.00000000      -0.56069600
Pt       0.00000000       0.00000000      16.87326000       0.00000000       0.02646800       0.55036800
Pt       4.20900000       4.05011000      14.58218000      -0.12630200      -0.07292100      -0.17668200
Pt       0.00000000       0.00000000      10.00000000       0.00000000      -0.03435500      -0.19725000
Pt       5.61200000       1.62004000      14.58218000       0.00000000      -0.00000000      -0.48572300
Pt       5.61200000       3.24009000      12.29109000       0.00000000       0.02026600       0.09961700
Pt       2.80600000       3.24009000      12.29109000       0.00000000      -0.00000000       0.24390400
Pt       4.20900000       0.81002000      12.29109000      -0.01755100      -0.01013300       0.09961700
Pt       1.40300000       0.81002000      12.29109000       0.01755100      -0.01013300       0.09961700
Pt       4.20900000       2.43007000      10.00000000      -0.02975300       0.01717800      -0.19725000
Pt       1.40300000       2.43007000      10.00000000       0.02975300       0.01717800      -0.19725000
Pt       2.80600000       0.00000000      10.00000000       0.00000000      -0.00000000      -0.17874800
Pt       2.80600000       1.62004000      14.58218000       0.00000000       0.14584200      -0.17668200
Pt       7.01499000       4.05011000      14.58218000       0.12630200      -0.07292100      -0.17668200
22
Lattice="5.611995395 0.0 0.0 2.805997698 4.860130578 0.0 0.0 0.0 29.657262579" Properties=species:S:1:pos:R:3:forces:R:3 energy=-138.85432839 pbc="T T T"
C        5.61200000       2.43007000      18.49926000      -0.12739300      -0.11441800      -2.31211700
C        1.40300000       0.00000000      18.49926000       2.18343700       2.07397400      -2.26571000
C        2.80600000       3.24009000      18.27026000      -1.19057400      -1.50498900      -3.02243600
O        2.80600000       3.24009000      19.42826000      -1.64909500      -1.79520500       2.78118000
O        5.61200000       2.43007000      19.65726000       0.01284100      -0.00544400       1.01181400
O        1.40300000       0.00000000      19.65726000       1.14059700       1.39772000       0.98579200
Pt       4.20900000       2.43007000      16.87326000       0.52579500      -0.70761200       1.24920200
Pt       1.40300000       2.43007000      16.87326000      -0.47254200       0.15993100       1.42020400
Pt       2.80600000       0.00000000      16.87326000      -0.65332400       0.14302000       1.02495900
Pt       0.00000000       0.00000000      16.87326000       0.16674000       0.02265500       1.03822900
Pt       4.20900000       4.05011000      14.58218000       0.04771500      -0.01936100      -0.98971600
Pt       0.00000000       0.00000000      10.00000000       0.01437900      -0.01056300      -0.17822100
Pt       5.61200000       1.62004000      14.58218000      -0.04927900      -0.07989000      -0.32640300
Pt       5.61200000       3.24009000      12.29109000      -0.02710100       0.03046800       0.11100900
Pt       2.80600000       3.24009000      12.29109000       0.05306300      -0.00673900       0.13894400
Pt       4.20900000       0.81002000      12.29109000      -0.02005400      -0.04361300       0.08401000
Pt       1.40300000       0.81002000      12.29109000      -0.00361400      -0.06022800       0.08666500
Pt       4.20900000       2.43007000      10.00000000       0.02210500      -0.02532800      -0.18400600
Pt       1.40300000       2.43007000      10.00000000      -0.00667400       0.00834800      -0.07228100
Pt       2.80600000       0.00000000      10.00000000       0.00226400       0.00697700      -0.16992600
Pt       2.80600000       1.62004000      14.58218000       0.06190300       0.17281600      -0.19818300
Pt       7.01499000       4.05011000      14.58218000      -0.03119000       0.35748100      -0.21300700
22
Lattice="5.611995395 0.0 0.0 2.805997698 4.860130578 0.0 0.0 0.0 29.657262579" Properties=species:S:1:pos:R:3:forces:R:3 energy=-138.72181827 pbc="T T T"
C        4.20900000       0.00000000      18.49926000       2.22347400      -1.67435000      -1.86783400
C        2.80600000       1.62004000      18.27026000      -1.46704500       2.14735400      -2.87879900
C        4.20900000       4.05011000      18.27026000      -0.26080500      -0.36624200      -2.64057600
O        4.20900000       4.05011000      19.42826000       0.06491900      -0.00738600       2.60146800
O        4.20900000       0.00000000      19.65726000       1.09551500      -1.44437300       0.75585100
O        2.80600000       1.62004000      19.42826000      -1.67198400       1.78418900       2.66376400
Pt       4.20900000       2.43007000      16.87326000       0.05566200       0.31067300       0.62311000
Pt       1.40300000       2.43007000      16.87326000       0.25509900      -0.39040400       0.32519500
Pt       2.80600000       0.00000000      16.87326000       0.27795500      -0.48885200       1.18556500
Pt       0.00000000       0.00000000      16.87326000      -0.53519800      -0.07559200       1.51535200
Pt       4.20900000       4.05011000      14.58218000       0.08701500       0.22410400      -0.44775100
Pt       0.00000000       0.00000000      10.00000000      -0.01933500       0.00522600      -0.11674400
Pt       5.61200000       1.62004000      14.58218000      -0.03807700       0.03634800      -0.25261500
Pt       5.61200000       3.24009000      12.29109000       0.05111600      -0.01364600       0.10016100
Pt       2.80600000       3.24009000      12.29109000      -0.02108600      -0.00787400       0.14085100
Pt       4.20900000       0.81002000      12.29109000      -0.05538200       0.00457100       0.18597900
Pt       1.40300000       0.81002000      12.29109000       0.01704200      -0.00210800       0.03655000
Pt       4.20900000       2.43007000      10.00000000      -0.00158900       0.01318200      -0.11953500
Pt       1.40300000       2.43007000      10.00000000       0.01016400      -0.00118500      -0.16425500
Pt       2.80600000       0.00000000      10.00000000       0.02240400      -0.01095000      -0.18194400
Pt       2.80600000       1.62004000      14.58218000       0.02301500      -0.04420300      -0.80971400
Pt       7.01499000       4.05011000      14.58218000      -0.11288000       0.00151900      -0.65407800
22
Lattice="5.611995395 0.0 0.0 2.805997698 4.860130578 0.0 0.0 0.0 29.657262579" Properties=species:S:1:pos:R:3:forces:R:3 energy=-138.78643988 pbc="T T T"
C        4.20900000       4.05011000      18.27026000      -1.21783700       1.52197400      -2.90742700
C        4.20900000       0.00000000      18.49926000      -0.11731200       0.26995800      -2.30699100
C        5.61200000       2.43007000      18.49926000       2.21413100      -1.90872100      -2.26020200
O        5.61200000       2.43007000      19.65726000       1.13180200      -1.43976800       0.98564700
O        4.20900000       4.05011000      19.42826000      -1.64039700       1.78806600       2.72739000
O        4.20900000       0.00000000      19.65726000       0.00882700      -0.03448100       1.01382200
Pt       4.20900000       2.43007000      16.87326000       0.16742900      -0.02876200       1.11436500
Pt       1.40300000       2.43007000      16.87326000      -0.66587600      -0.38972200       0.98335800
Pt       2.80600000       0.00000000      16.87326000       0.38468700       0.36101200       1.31659900
Pt       0.00000000       0.00000000      16.87326000      -0.34229300      -0.50075800       1.31297000
Pt       4.20900000       4.05011000      14.58218000      -0.03148600       0.28612200      -0.51385500
Pt       0.00000000       0.00000000      10.00000000      -0.00960100      -0.02177300      -0.21567500
Pt       5.61200000       1.62004000      14.58218000      -0.03067600      -0.11685900      -0.69268600
Pt       5.61200000       3.24009000      12.29109000       0.01548600      -0.02051400       0.09683100
Pt       2.80600000       3.24009000      12.29109000      -0.03130800      -0.00467100       0.09196900
Pt       4.20900000       0.81002000      12.29109000       0.06230100      -0.03841400       0.16508400
Pt       1.40300000       0.81002000      12.29109000      -0.01999200      -0.01737800       0.11954200
Pt       4.20900000       2.43007000      10.00000000       0.00198400      -0.00301500      -0.11242900
Pt       1.40300000       2.43007000      10.00000000       0.00421900      -0.01807400      -0.16578300
Pt       2.80600000       0.00000000      10.00000000       0.01325200       0.02299200      -0.11631500
Pt       2.80600000       1.62004000      14.58218000       0.04946300       0.24903400       0.07412000
Pt       7.01499000       4.05011000      14.58218000       0.05319500       0.04375000      -0.71033300
22
Lattice="5.611995395 0.0 0.0 2.805997698 4.860130578 0.0 0.0 0.0 29.428262579" Properties=species:S:1:pos:R:3:forces:R:3 energy=-140.10955846 pbc="T T T"
C        5.61200000       3.24009000      18.27026000      -0.00000000      -0.38282300      -2.42637500
C        4.20900000       0.81002000      18.27026000       0.33153400       0.19141100      -2.42637500
C        1.40300000       0.81002000      18.27026000      -0.33153400       0.19141100      -2.42637500
O        1.40300000       0.81002000      19.42826000       0.04234200      -0.02444600       2.47051800
O        5.61200000       3.24009000      19.42826000      -0.00000000       0.04889200       2.47051800
O        4.20900000       0.81002000      19.42826000      -0.04234200      -0.02444600       2.47051800
Pt       4.20900000       2.43007000      16.87326000      -0.18896400       0.10909900       0.57205000
Pt       1.40300000       2.43007000      16.87326000       0.18896400       0.10909900       0.57205000
Pt       2.80600000       0.00000000      16.87326000      -0.00000000      -0.00000000       0.57267300
Pt       0.00000000       0.00000000      16.87326000      -0.00000000      -0.21819700       0.57205000
Pt       4.20900000       4.05011000      14.58218000      -0.07441700      -0.04296500      -0.36169200
Pt       0.00000000       0.00000000      10.00000000      -0.00000000       0.00592600      -0.18394600
Pt       5.61200000       1.62004000      14.58218000      -0.00000000      -0.00000000      -1.03172000
Pt       5.61200000       3.24009000      12.29109000      -0.00000000      -0.04955500       0.08446400
Pt       2.80600000       3.24009000      12.29109000      -0.00000000      -0.00000000       0.06325100
Pt       4.20900000       0.81002000      12.29109000       0.04291600       0.02477800       0.08446400
Pt       1.40300000       0.81002000      12.29109000      -0.04291600       0.02477800       0.08446400
Pt       4.20900000       2.43007000      10.00000000       0.00513200      -0.00296300      -0.18394600
Pt       1.40300000       2.43007000      10.00000000      -0.00513200      -0.00296300      -0.18394600
Pt       2.80600000       0.00000000      10.00000000      -0.00000000      -0.00000000      -0.06926000
Pt       2.80600000       1.62004000      14.58218000      -0.00000000       0.08592900      -0.36169200
Pt       7.01499000       4.05011000      14.58218000       0.07441700      -0.04296500      -0.36169200
22
Lattice="5.611995395 0.0 0.0 2.805997698 4.860130578 0.0 0.0 0.0 29.886262579" Properties=species:S:1:pos:R:3:forces:R:3 energy=-139.68346741 pbc="T T T"
C        2.80600000       0.00000000      18.72826000      -0.00000000       1.06812500       0.38543900
C        5.61200000       2.43007000      18.49926000      -0.00000000       0.06710600      -3.54683500
C        0.00000000       0.00000000      18.72826000       0.00000000      -1.03584900       0.35504200
O        0.00000000       0.00000000      19.88626000      -0.00000000      -0.74093600      -0.08515900
O        2.80600000       0.00000000      19.88626000       0.00000000       0.72312400      -0.09046400
O        5.61200000       2.43007000      19.65726000      -0.00000000      -0.00929500       1.76045800
Pt       4.20900000       2.43007000      16.87326000       0.43639000      -0.13203300       0.91516000
Pt       1.40300000       2.43007000      16.87326000      -0.43639000      -0.13203300       0.91516000
Pt       2.80600000       0.00000000      16.87326000      -0.00000000       0.52805900       0.52615200
Pt       0.00000000       0.00000000      16.87326000      -0.00000000      -0.44664900       0.46792900
Pt       4.20900000       4.05011000      14.58218000      -0.05871500       0.17301700      -0.43656300
Pt       0.00000000       0.00000000      10.00000000      -0.00000000      -0.01427300      -0.25756400
Pt       5.61200000       1.62004000      14.58218000      -0.00000000      -0.27661800      -0.58011700
Pt       5.61200000       3.24009000      12.29109000      -0.00000000      -0.00285500       0.10035900
Pt       2.80600000       3.24009000      12.29109000      -0.00000000       0.00830400       0.13283800
Pt       4.20900000       0.81002000      12.29109000       0.06026500      -0.01928800       0.08211500
Pt       1.40300000       0.81002000      12.29109000      -0.06026500      -0.01928800       0.08211500
Pt       4.20900000       2.43007000      10.00000000      -0.01219500      -0.01462400      -0.13995900
Pt       1.40300000       2.43007000      10.00000000       0.01219500      -0.01462400      -0.13995900
Pt       2.80600000       0.00000000      10.00000000      -0.00000000       0.02937100      -0.15772300
Pt       2.80600000       1.62004000      14.58218000       0.00000000       0.08824200       0.14814000
Pt       7.01499000       4.05011000      14.58218000       0.05871500       0.17301700      -0.43656300
22
Lattice="5.611995395 0.0 0.0 2.805997698 4.860130578 0.0 0.0 0.0 29.657262579" Properties=species:S:1:pos:R:3:forces:R:3 energy=-138.86278274 pbc="T T T"
C        2.80600000       3.24009000      18.27026000       0.28249900       0.35607800      -2.73292000
C        1.40300000       0.81002000      18.27026000       1.47263400      -2.15034300      -3.01028900
C        5.61200000       2.43007000      18.49926000      -2.18864600       1.80608900      -1.88039500
O        5.61200000       2.43007000      19.65726000      -1.10768400       1.41283300       0.74664900
O        2.80600000       3.24009000      19.42826000      -0.07395600       0.01057400       2.63728900
O        1.40300000       0.81002000      19.42826000       1.67594900      -1.78312700       2.72518900
Pt       4.20900000       2.43007000      16.87326000       0.69005700      -0.29722900       1.48006100
Pt       1.40300000       2.43007000      16.87326000      -0.44316700       0.37874800       1.21880200
Pt       2.80600000       0.00000000      16.87326000      -0.13977100       0.37228100       0.39473500
Pt       0.00000000       0.00000000      16.87326000      -0.20359800      -0.18493200       0.54392400
Pt       4.20900000       4.05011000      14.58218000       0.02745300      -0.03164200      -0.81535200
Pt       0.00000000       0.00000000      10.00000000      -0.00507000      -0.02696200      -0.14985200
Pt       5.61200000       1.62004000      14.58218000      -0.08595400      -0.02565300      -0.53016500
Pt       5.61200000       3.24009000      12.29109000      -0.02333600       0.03014400       0.05218100
Pt       2.80600000       3.24009000      12.29109000       0.05965300      -0.05863100       0.13292400
Pt       4.20900000       0.81002000      12.29109000      -0.01709200      -0.01052900       0.10403400
Pt       1.40300000       0.81002000      12.29109000      -0.00241200      -0.01433700       0.06517600
Pt       4.20900000       2.43007000      10.00000000       0.01942300      -0.00104100      -0.18796400
Pt       1.40300000       2.43007000      10.00000000      -0.01342400       0.01752000      -0.09182300
Pt       2.80600000       0.00000000      10.00000000       0.01233100      -0.00666100      -0.13846100
Pt       2.80600000       1.62004000      14.58218000       0.08107700       0.18063700      -0.35652800
Pt       7.01499000       4.05011000      14.58218000      -0.01696600       0.02618300      -0.20721300
22
Lattice="5.611995395 0.0 0.0 2.805997698 4.860130578 0.0 0.0 0.0 29.886262579" Properties=species:S:1:pos:R:3:forces:R:3 energy=-139.23942772 pbc="T T T"
C        4.20900000       2.43007000      18.72826000      -0.00000000      -0.01109300       0.56931700
C        1.40300000       0.00000000      18.49926000       0.00000000       1.37555200      -3.13801800
C        4.20900000       0.00000000      18.49926000      -0.00000000      -1.21624900      -3.05668000
O        4.20900000       0.00000000      19.65726000      -0.00000000      -0.78353600       1.34254900
O        4.20900000       2.43007000      19.88626000      -0.00000000      -0.00062500      -0.17838100
O        1.40300000       0.00000000      19.65726000       0.00000000       0.74998200       1.34796100
Pt       4.20900000       2.43007000      16.87326000      -0.00000000       0.09857000       0.43524200
Pt       1.40300000       2.43007000      16.87326000      -0.00000000       0.05745800      -0.44517200
Pt       2.80600000       0.00000000      16.87326000       0.02103100      -0.29368300       2.23078500
Pt       0.00000000       0.00000000      16.87326000      -0.02103100      -0.29368300       2.23078500
Pt       4.20900000       4.05011000      14.58218000      -0.00000000       0.00642700      -0.38682500
Pt       0.00000000       0.00000000      10.00000000      -0.02826000       0.00339400      -0.14879500
Pt       5.61200000       1.62004000      14.58218000      -0.12330700       0.10897500      -0.35265100
Pt       5.61200000       3.24009000      12.29109000       0.02675500      -0.04242700       0.08253200
Pt       2.80600000       3.24009000      12.29109000      -0.02675500      -0.04242700       0.08253200
Pt       4.20900000       0.81002000      12.29109000      -0.00000000      -0.00027500       0.27968100
Pt       1.40300000       0.81002000      12.29109000      -0.00000000       0.02836200       0.11360700
Pt       4.20900000       2.43007000      10.00000000      -0.00000000      -0.02667600      -0.20470500
Pt       1.40300000       2.43007000      10.00000000      -0.00000000       0.00004800      -0.17257500
Pt       2.80600000       0.00000000      10.00000000       0.02826000       0.00339400      -0.14879500
Pt       2.80600000       1.62004000      14.58218000       0.12330700       0.10897500      -0.35265100
Pt       7.01499000       4.05011000      14.58218000      -0.00000000       0.16953600      -0.12974200
22
Lattice="5.611995395 0.0 0.0 2.805997698 4.860130578 0.0 0.0 0.0 29.657262579" Properties=species:S:1:pos:R:3:forces:R:3 energy=-137.7548888 pbc="T T T"
C        1.40300000       0.81002000      18.27026000      -1.29480200      -2.02840900      -2.63876500
C        7.01499000       4.05011000      18.27026000      -1.33433800       2.03850800      -2.49821900
C        2.80600000       2.43007000      18.49926000       4.41070000       0.06671500      -1.77094000
O        2.80600000       2.43007000      19.65726000       2.26106700      -0.01691800       0.66257200
O        1.40300000       0.81002000      19.42826000      -1.65110100      -1.74649600       2.75302800
O        7.01499000       4.05011000      19.42826000      -1.64230000       1.74753300       2.68641100
Pt       4.20900000       2.43007000      16.87326000      -0.84687300      -0.16254700       1.04595300
Pt       1.40300000       2.43007000      16.87326000      -0.11810400       0.07937000       0.86086300
Pt       2.80600000       0.00000000      16.87326000       0.16756100      -0.47403700       0.46956600
Pt       0.00000000       0.00000000      16.87326000      -0.06163500       0.30055100       0.54850800
Pt       4.20900000       4.05011000      14.58218000       0.05964800       0.04215600      -0.50805600
Pt       0.00000000       0.00000000      10.00000000       0.00041600       0.01750900      -0.08831000
Pt       5.61200000       1.62004000      14.58218000       0.01831200       0.30214900      -0.11348500
Pt       5.61200000       3.24009000      12.29109000      -0.03917100      -0.02593400       0.05070600
Pt       2.80600000       3.24009000      12.29109000       0.00029200      -0.03711100       0.05286500
Pt       4.20900000       0.81002000      12.29109000      -0.01019800       0.01164900       0.13341500
Pt       1.40300000       0.81002000      12.29109000       0.07348500      -0.01707800       0.16555700
Pt       4.20900000       2.43007000      10.00000000       0.00706800      -0.00447300      -0.17427900
Pt       1.40300000       2.43007000      10.00000000       0.01042200      -0.00186900      -0.14431000
Pt       2.80600000       0.00000000      10.00000000       0.01975900      -0.01985300      -0.19064400
Pt       2.80600000       1.62004000      14.58218000       0.00007000      -0.07795500      -0.87485500
Pt       7.01499000       4.05011000      14.58218000      -0.03027800       0.00654000      -0.42758000
22
Lattice="5.611995395 0.0 0.0 2.805997698 4.860130578 0.0 0.0 0.0 29.657262579" Properties=species:S:1:pos:R:3:forces:R:3 energy=-137.79181237 pbc="T T T"
C        4.20900000       0.81002000      18.27026000       1.03146600      -1.61044000      -2.80381300
C        1.40300000       0.81002000      18.27026000      -1.03146600      -1.61044000      -2.80381300
C        2.80600000       2.43007000      18.49926000       0.00000000       4.08220300      -1.69668400
O        2.80600000       2.43007000      19.65726000      -0.00000000       2.74678200       0.62902300
O        4.20900000       0.81002000      19.42826000       1.61761900      -1.83461100       2.67432200
O        1.40300000       0.81002000      19.42826000      -1.61761900      -1.83461100       2.67432200
Pt       4.20900000       2.43007000      16.87326000      -0.31921800       0.27402900       1.16479500
Pt       1.40300000       2.43007000      16.87326000       0.31921800       0.27402900       1.16479500
Pt       2.80600000       0.00000000      16.87326000      -0.00000000      -0.69689200       0.43787200
Pt       0.00000000       0.00000000      16.87326000      -0.00000000       0.14779400       0.71362100
Pt       4.20900000       4.05011000      14.58218000       0.06544700      -0.11177200      -0.16045500
Pt       0.00000000       0.00000000      10.00000000      -0.00000000       0.00046900      -0.04144600
Pt       5.61200000       1.62004000      14.58218000      -0.00000000       0.37340700      -0.37597800
Pt       5.61200000       3.24009000      12.29109000      -0.00000000      -0.05837500       0.05478000
Pt       2.80600000       3.24009000      12.29109000      -0.00000000      -0.07682600       0.06348900
Pt       4.20900000       0.81002000      12.29109000      -0.03184900       0.03793000       0.11640200
Pt       1.40300000       0.81002000      12.29109000       0.03184900       0.03793000       0.11640200
Pt       4.20900000       2.43007000      10.00000000      -0.00646600       0.00969800      -0.20081400
Pt       1.40300000       2.43007000      10.00000000       0.00646600       0.00969800      -0.20081400
Pt       2.80600000       0.00000000      10.00000000      -0.00000000      -0.02599100      -0.16077500
Pt       2.80600000       1.62004000      14.58218000      -0.00000000      -0.02224000      -1.20477600
Pt       7.01499000       4.05011000      14.58218000      -0.06544700      -0.11177200      -0.16045500
22
Lattice="5.611995395 0.0 0.0 2.805997698 4.860130578 0.0 0.0 0.0 29.657262579" Properties=species:S:1:pos:R:3:forces:R:3 energy=-139.68574987 pbc="T T T"
C        4.20900000       0.00000000      18.49926000      -0.00000000       0.09409000      -2.87948600
C        5.61200000       2.43007000      18.49926000       0.00758100       0.07563400      -2.61072000
C        2.80600000       2.43007000      18.49926000      -0.00758100       0.07563400      -2.61072000
O        2.80600000       2.43007000      19.65726000       0.00271200      -0.02031000       1.06090300
O        4.20900000       0.00000000      19.65726000      -0.00000000      -0.02242300       1.37229400
O        5.61200000       2.43007000      19.65726000      -0.00271200      -0.02031000       1.06090300
Pt       4.20900000       2.43007000      16.87326000       0.00000000       0.20698200       2.23814500
Pt       1.40300000       2.43007000      16.87326000      -0.00000000      -0.70768900       2.16699800
Pt       2.80600000       0.00000000      16.87326000       0.47219500      -0.08506400       0.95395300
Pt       0.00000000       0.00000000      16.87326000      -0.47219500      -0.08506400       0.95395300
Pt       4.20900000       4.05011000      14.58218000      -0.00000000       0.29799900      -0.05294700
Pt       0.00000000       0.00000000      10.00000000       0.00248900      -0.01360300      -0.14468000
Pt       5.61200000       1.62004000      14.58218000       0.05998000       0.19351200      -0.39123600
Pt       5.61200000       3.24009000      12.29109000       0.04002800      -0.01524500       0.11215500
Pt       2.80600000       3.24009000      12.29109000      -0.04002800      -0.01524500       0.11215500
Pt       4.20900000       0.81002000      12.29109000      -0.00000000      -0.03852300       0.12481700
Pt       1.40300000       0.81002000      12.29109000      -0.00000000      -0.02656500       0.12649000
Pt       4.20900000       2.43007000      10.00000000      -0.00000000       0.01820400      -0.08762800
Pt       1.40300000       2.43007000      10.00000000      -0.00000000      -0.02374900      -0.19767200
Pt       2.80600000       0.00000000      10.00000000      -0.00248900      -0.01360300      -0.14468000
Pt       2.80600000       1.62004000      14.58218000      -0.05998000       0.19351200      -0.39123600
Pt       7.01499000       4.05011000      14.58218000      -0.00000000      -0.06817300      -0.77176000
22
Lattice="5.611995395 0.0 0.0 2.805997698 4.860130578 0.0 0.0 0.0 29.657262579" Properties=species:S:1:pos:R:3:forces:R:3 energy=-137.35991482 pbc="T T T"
C        5.61200000       2.43007000      18.49926000       2.07922600       2.02627700      -2.19460400
C        4.20900000       0.81002000      18.27026000      -0.00000000      -3.93885400      -3.47447300