76
Lattice="11.223990791 0.0 0.0 5.611995395 9.720261156 0.0 0.0 0.0 29.886262579" Properties=species:S:1:pos:R:3:forces:R:3 energy=-466.31337161 pbc="T T T"
C        1.40300000       2.43007000      18.72826000       0.18419800       0.04213600       0.37330300
C        9.82099000       0.81002000      18.27026000      -0.15611600      -0.07149000      -3.49257100
C        7.01499000       4.86013000      18.49926000       1.25454100      -2.07493600      -2.40406600
C        5.61200000       6.48017000      18.27026000      -1.35403400       1.96419300      -3.32032300
C        9.82099000       8.91024000      18.27026000       0.01990800       0.00882300      -3.32525800
C        9.82099000       4.86013000      18.49926000       0.84853200       0.11157900      -2.83189200
O        9.82099000       0.81002000      19.42826000       0.01550400       0.00134200       3.20194800
O        1.40300000       2.43007000      19.88626000      -0.01903200       0.00796400      -0.23102600
O        9.82099000       4.86013000      19.65726000       0.04028000      -0.02879100       1.33418100
O        5.61200000       6.48017000      19.42826000      -1.64148500       1.86163900       2.95542100
O        7.01499000       4.86013000      19.65726000       1.10912700      -1.42588800       0.98338000
O        9.82099000       8.91024000      19.42826000      -0.00640500      -0.00791000       3.10940600
Pt       9.82099000       4.05011000      14.58218000      -0.17608200      -0.12249600      -0.29546600
Pt      14.02999000       6.48017000      14.58218000       0.00443900       0.05084500      -0.22296100
Pt       5.61200000       6.48017000      14.58218000      -0.06177700       0.00504800      -0.69626300
Pt       8.41799000       6.48017000      14.58218000       0.04807000       0.02118400      -0.35234500
Pt      11.22399000       6.48017000      14.58218000       0.03284400      -0.00757900      -0.30588800
Pt      15.43299000       8.91024000      14.58218000      -0.03005900      -0.11125400      -0.46189400
Pt       7.01499000       8.91024000      14.58218000      -0.09813000       0.05602000      -0.14657600
Pt       9.82099000       8.91024000      14.58218000       0.00847900      -0.00581200      -0.62853000
Pt      12.62699000       8.91024000      14.58218000       0.08884500       0.11992600      -0.11526100
Pt       0.00000000       0.00000000      16.87326000       0.03652900      -0.18298600       0.38311800
Pt       2.80600000       0.00000000      16.87326000       0.06780100      -0.22288200       0.37422500
Pt       5.61200000       0.00000000      16.87326000       0.19231200       0.08779100       0.56885700
Pt       1.40300000       2.43007000      16.87326000       0.35064300       0.10444600       0.81943700
Pt       4.20900000       2.43007000      16.87326000       0.26427800       0.18560500      -0.24811500
Pt       7.01499000       2.43007000      16.87326000      -0.40492000      -0.44716200      -0.23000600
Pt       9.82099000       2.43007000      16.87326000      -0.28027900      -0.31482400       0.33246100
Pt       7.01499000       4.05011000      14.58218000       0.08524100       0.04842600      -0.35120500
Pt       5.61200000       4.86013000      16.87326000       0.02619800      -0.58851200       1.43733500
Pt       8.41799000       4.86013000      16.87326000       0.03676600      -0.34090800       2.37398800
Pt      11.22399000       4.86013000      16.87326000      -0.42180300       0.23995700       1.19147300
Pt       4.20900000       7.29020000      16.87326000      -0.15094200      -0.23003700       0.59267200
Pt       7.01499000       7.29020000      16.87326000      -0.26914400       0.53713300       0.33857100
Pt       9.82099000       7.29020000      16.87326000       0.18848800       0.47752500       0.39002200
Pt      12.62699000       7.29020000      16.87326000       0.38036400      -0.05414100      -0.21956800
Pt       8.41799000       0.00000000      16.87326000      -0.28853500      -0.12169000       0.53865400
Pt       2.80600000       4.86013000      16.87326000      -0.12799900       0.18661600      -0.24548600
Pt       0.00000000       0.00000000      10.00000000      -0.00317400       0.03514700      -0.07938100
Pt       8.41799000       1.62004000      14.58218000      -0.04657400       0.06203700      -0.42595500
Pt      12.62699000       7.29020000      10.00000000      -0.02249400       0.06550500      -0.10572500
Pt       9.82099000       7.29020000      10.00000000       0.02328200       0.02899000      -0.19744000
Pt       7.01499000       7.29020000      10.00000000       0.01069200      -0.01109300      -0.03516300
Pt       4.20900000       7.29020000      10.00000000      -0.01626300      -0.04166500      -0.09821300
Pt      11.22399000       4.86013000      10.00000000      -0.01619800      -0.03558200      -0.08040200
Pt       8.41799000       4.86013000      10.00000000      -0.00735200       0.02305600      -0.05872300
Pt       5.61200000       4.86013000      10.00000000      -0.04733300       0.02185200      -0.10577600
Pt       2.80600000       4.86013000      10.00000000       0.04818200       0.01042700      -0.08790100
Pt       9.82099000       2.43007000      10.00000000       0.06099900       0.00513500      -0.10911700
Pt       7.01499000       2.43007000      10.00000000      -0.01443800      -0.03984300      -0.03269000
Pt       4.20900000       2.43007000      10.00000000      -0.01624800      -0.04702200      -0.16050100
Pt       1.40300000       2.43007000      10.00000000      -0.01377800      -0.01444200      -0.20061200
Pt       8.41799000       0.00000000      10.00000000      -0.03885900      -0.02941900      -0.12870800
Pt       5.61200000       0.00000000      10.00000000       0.00024400      -0.02031700      -0.14936500
Pt       2.80600000       0.00000000      10.00000000       0.02890400       0.02142600      -0.09624300
Pt       1.40300000       0.81002000      12.29109000       0.03825700       0.05686400       0.18004000
Pt      12.62699000       4.05011000      14.58218000      -0.10218600      -0.03709100      -0.04016100
Pt       4.20900000       0.81002000      12.29109000       0.06599800       0.01799500       0.07791100
Pt       9.82099000       0.81002000      12.29109000      -0.06619600       0.01105900       0.08739200
Pt       5.61200000       1.62004000      14.58218000       0.01007500      -0.04775300      -0.23740900
Pt       2.80600000       1.62004000      14.58218000      -0.15082100       0.05103600      -0.18627800
Pt      11.22399000       1.62004000      14.58218000       0.21041200       0.12717400      -0.42836400
Pt      14.02999000       8.10022000      12.29109000       0.03005800      -0.03682800       0.14641000
Pt      11.22399000       8.10022000      12.29109000      -0.04866500      -0.05031200       0.03941000
Pt       8.41799000       8.10022000      12.29109000       0.04141200      -0.03377800       0.08414100
Pt       5.61200000       8.10022000      12.29109000      -0.01373000       0.04661500       0.06941700
Pt      12.62699000       5.67015000      12.29109000      -0.01159200       0.00002300      -0.02343400
Pt       9.82099000       5.67015000      12.29109000       0.03549200       0.11501500       0.14771100
Pt       7.01499000       5.67015000      12.29109000      -0.01830000      -0.05997000       0.17926000
Pt       4.20900000       5.67015000      12.29109000      -0.00862500       0.00238500       0.23495900
Pt      11.22399000       3.24009000      12.29109000       0.10146600      -0.01969700       0.19706800
Pt       8.41799000       3.24009000      12.29109000       0.08346500      -0.00238700       0.09609500
Pt       5.61200000       3.24009000      12.29109000      -0.07469500       0.05197200       0.10162500
Pt       2.80600000       3.24009000      12.29109000      -0.03798100      -0.03065000       0.04219200
Pt       7.01499000       0.81002000      12.29109000      -0.03475200      -0.07243100       0.20687000
Pt       4.20900000       4.05011000      14.58218000       0.22467500       0.11766700       0.00330700
76
Lattice="11.223990791 0.0 0.0 5.611995395 9.720261156 0.0 0.0 0.0 29.886262579" Properties=species:S:1:pos:R:3:forces:R:3 energy=-467.2481062 pbc="T T T"
C        7.01499000       0.00000000      18.49926000       0.18333900       0.56151200      -3.22480300
C        2.80600000       4.86013000      18.72826000       0.06899000      -0.07155800      -0.00548300
C       11.22399000       7.29020000      18.49926000      -0.32107700      -0.38349000      -3.16678500
C        4.20900000       7.29020000      18.72826000       0.35695300       0.38384800       0.06943600
C        1.40300000       2.43007000      18.72826000       0.25591000      -0.43472800       0.02138600
C        9.82099000       2.43007000      18.72826000      -0.44613900       0.05249000       0.03724300
O        2.80600000       4.86013000      19.88626000      -0.02132700       0.02171300       0.04284300
O        7.01499000       0.00000000      19.65726000       0.06305800       0.06693600       1.66286700
O        9.82099000       2.43007000      19.88626000      -0.14208300      -0.01677100       0.01802800
O        4.20900000       7.29020000      19.88626000       0.03007900       0.12104500      -0.00473900
O       11.22399000       7.29020000      19.65726000      -0.04111400      -0.11151200       1.62894100
O        1.40300000       2.43007000      19.88626000       0.06261900      -0.10710300       0.04087200
Pt       9.82099000       4.05011000      14.58218000       0.00626300      -0.15245600      -0.15046000
Pt      14.02999000       6.48017000      14.58218000      -0.03455100       0.06275700      -0.05374500
Pt       5.61200000       6.48017000      14.58218000      -0.09386100       0.09438700      -0.21258600
Pt       8.41799000       6.48017000      14.58218000       0.11583900       0.11110800      -0.08996000
Pt      11.22399000       6.48017000      14.58218000       0.01336800      -0.11780600      -0.59600000
Pt      15.43299000       8.91024000      14.58218000      -0.12617600      -0.03096600      -0.01365700
Pt       7.01499000       8.91024000      14.58218000       0.00766500      -0.01181600      -0.24027600
Pt       9.82099000       8.91024000      14.58218000       0.10864600       0.14312600      -0.09916800
Pt      12.62699000       8.91024000      14.58218000       0.02916000      -0.04133200      -0.62718600
Pt       0.00000000       0.00000000      16.87326000       0.27721200      -0.35693100      -0.29425400
Pt       2.80600000       0.00000000      16.87326000       0.04163700      -0.27247000      -0.18915500
Pt       5.61200000       0.00000000      16.87326000       0.24504200       0.41777800       1.20793800
Pt       1.40300000       2.43007000      16.87326000       0.20146000      -0.36866700       0.79423900
Pt       4.20900000       2.43007000      16.87326000       0.50757200      -0.24131900      -0.21260000
Pt       7.01499000       2.43007000      16.87326000      -0.42061100       0.52683900      -0.12264800
Pt       9.82099000       2.43007000      16.87326000      -0.29644500       0.14161300       0.84760900
Pt       7.01499000       4.05011000      14.58218000      -0.04621400      -0.00460600      -0.28916000
Pt       5.61200000       4.86013000      16.87326000       0.63809200      -0.38849400      -0.14873900
Pt       8.41799000       4.86013000      16.87326000      -0.34498800       0.29553500      -0.11110600
Pt      11.22399000       4.86013000      16.87326000      -0.40402100       0.18744100      -0.33694200
Pt       4.20900000       7.29020000      16.87326000       0.35884400       0.26601400       0.88574700
Pt       7.01499000       7.29020000      16.87326000       0.37924600      -0.00765700      -0.12655400
Pt       9.82099000       7.29020000      16.87326000       0.18478900      -0.12988800       1.33603400
Pt      12.62699000       7.29020000      16.87326000      -0.89182900      -0.30276600       0.94682200
Pt       8.41799000       0.00000000      16.87326000      -0.62210200      -0.04926600       1.08013600
Pt       2.80600000       4.86013000      16.87326000       0.11898600      -0.06235900       0.74143200
Pt       0.00000000       0.00000000      10.00000000      -0.01007100      -0.01238200      -0.01724600
Pt       8.41799000       1.62004000      14.58218000       0.18767100       0.07419600      -0.30145500
Pt      12.62699000       7.29020000      10.00000000      -0.02543800       0.06235800      -0.11666700
Pt       9.82099000       7.29020000      10.00000000       0.01088400       0.03033000      -0.14104200
Pt       7.01499000       7.29020000      10.00000000       0.01592500      -0.05116600      -0.14604200
Pt       4.20900000       7.29020000      10.00000000       0.00008200      -0.02121700      -0.06888200
Pt      11.22399000       4.86013000      10.00000000      -0.05893400      -0.03396100      -0.09825100
Pt       8.41799000       4.86013000      10.00000000       0.01346500      -0.00191600      -0.11671500
Pt       5.61200000       4.86013000      10.00000000       0.01763100      -0.02599100      -0.15308100
Pt       2.80600000       4.86013000      10.00000000       0.00277400       0.01927600      -0.03601300
Pt       9.82099000       2.43007000      10.00000000      -0.02473200       0.01773900      -0.19428600
Pt       7.01499000       2.43007000      10.00000000       0.03160400      -0.02038900      -0.12973600
Pt       4.20900000       2.43007000      10.00000000       0.02506100       0.01637100      -0.05964900
Pt       1.40300000       2.43007000      10.00000000      -0.02236900       0.01065000      -0.05790900
Pt       8.41799000       0.00000000      10.00000000      -0.04842600       0.04675600      -0.17362500
Pt       5.61200000       0.00000000      10.00000000       0.01944200      -0.03469500      -0.17028800
Pt       2.80600000       0.00000000      10.00000000       0.05075800      -0.03674400      -0.09953200
Pt       1.40300000       0.81002000      12.29109000       0.06579500      -0.02402300       0.15114400
Pt      12.62699000       4.05011000      14.58218000       0.14892300      -0.06013700      -0.15680100
Pt       4.20900000       0.81002000      12.29109000       0.03775700      -0.02569100       0.05681000
Pt       9.82099000       0.81002000      12.29109000      -0.08292100       0.04267500       0.06730800
Pt       5.61200000       1.62004000      14.58218000      -0.04454800       0.01189000      -0.37626600
Pt       2.80600000       1.62004000      14.58218000      -0.16384800       0.04753500      -0.17353900
Pt      11.22399000       1.62004000      14.58218000       0.00109800       0.16609500      -0.20098000
Pt      14.02999000       8.10022000      12.29109000       0.03407000       0.04064300       0.14983800
Pt      11.22399000       8.10022000      12.29109000      -0.03275700       0.00767000       0.22012500
Pt       8.41799000       8.10022000      12.29109000      -0.08366500      -0.04360700       0.14374100
Pt       5.61200000       8.10022000      12.29109000       0.06244700      -0.03878000       0.16275900
Pt      12.62699000       5.67015000      12.29109000      -0.02634200       0.00942200       0.09300600
Pt       9.82099000       5.67015000      12.29109000      -0.02555500       0.05834800       0.07751800
Pt       7.01499000       5.67015000      12.29109000      -0.04276600      -0.05751100       0.01523200
Pt       4.20900000       5.67015000      12.29109000       0.11133600      -0.04146600       0.20519100
Pt      11.22399000       3.24009000      12.29109000      -0.08934700      -0.04060200       0.18245000
Pt       8.41799000       3.24009000      12.29109000       0.04257400       0.01551000       0.15901500
Pt       5.61200000       3.24009000      12.29109000       0.05094600       0.04946800       0.02672500
Pt       2.80600000       3.24009000      12.29109000       0.01604300      -0.01767300       0.27076800
Pt       7.01499000       0.81002000      12.29109000      -0.04431800      -0.00652200       0.07123400
Pt       4.20900000       4.05011000      14.58218000      -0.12248200       0.07736100      -0.11042600
76
Lattice="11.223990791 0.0 0.0 5.611995395 9.720261156 0.0 0.0 0.0 29.657262579" Properties=species:S:1:pos:R:3:forces:R:3 energy=-465.99514653 pbc="T T T"
C        1.40300000       0.81002000      18.27026000       0.00213200       0.01321400      -3.29180900
C        4.20900000       4.86013000      18.49926000      -2.19870600       1.87478600      -1.97971200
C        7.01499000       5.67015000      18.27026000       1.02692600       0.77460300      -3.08878400
C        7.01499000       0.81002000      18.27026000       0.21838000      -0.58501000      -3.06196300
C        5.61200000       3.24009000      18.27026000       0.71769200      -2.21823900      -2.94767800
C       12.62699000       5.67015000      18.27026000      -0.50951200       0.18326800      -3.13001900
O        4.20900000       4.86013000      19.65726000      -1.11623400       1.43950700       0.78123300
O        1.40300000       0.81002000      19.42826000      -0.00634800       0.01030000       3.02715600
O       12.62699000       5.67015000      19.42826000      -0.09434700       0.04948400       2.91921300
O        7.01499000       0.81002000      19.42826000       0.06674000      -0.12364700       2.86820700
O        7.01499000       5.67015000      19.42826000       0.06683000       0.07945800       2.86572500
O        5.61200000       3.24009000      19.42826000       1.52376800      -1.77890200       2.62753600
Pt       9.82099000       4.05011000      14.58218000      -0.00512900       0.10433500      -0.07452600
Pt      14.02999000       6.48017000      14.58218000      -0.01897200       0.04821100      -0.51130800
Pt       5.61200000       6.48017000      14.58218000       0.01611900      -0.11904500      -0.37703600
Pt       8.41799000       6.48017000      14.58218000       0.08625300       0.05944900      -0.44214700
Pt      11.22399000       6.48017000      14.58218000      -0.06957200       0.04310700      -0.44575800
Pt      15.43299000       8.91024000      14.58218000       0.00723600       0.10295100      -0.08979300
Pt       7.01499000       8.91024000      14.58218000       0.00869400      -0.19079800      -0.44610600
Pt       9.82099000       8.91024000      14.58218000      -0.01119700       0.12084000      -0.02848500
Pt      12.62699000       8.91024000      14.58218000      -0.00075000      -0.21470600      -0.39661200
Pt       0.00000000       0.00000000      16.87326000      -0.24264500      -0.16729300       0.56763300
Pt       2.80600000       0.00000000      16.87326000       0.23586200      -0.21941400       0.49056900
Pt       5.61200000       0.00000000      16.87326000      -0.22441000      -0.50892900       0.51164800
Pt       1.40300000       2.43007000      16.87326000      -0.14928300      -0.15706100       0.47721300
Pt       4.20900000       2.43007000      16.87326000      -0.07958800      -0.28325700       0.41893700
Pt       7.01499000       2.43007000      16.87326000       0.28740500      -0.05265800       0.84639400
Pt       9.82099000       2.43007000      16.87326000       0.06083600       0.34475300      -0.25726000
Pt       7.01499000       4.05011000      14.58218000      -0.06752400      -0.06709000      -0.44818300
Pt       5.61200000       4.86013000      16.87326000      -0.42136800       0.37907600       1.26295000
Pt       8.41799000       4.86013000      16.87326000       0.50237600       0.05408400       0.56727200
Pt      11.22399000       4.86013000      16.87326000      -0.30207000      -0.15462700       0.56094600
Pt       4.20900000       7.29020000      16.87326000      -0.02287100       0.92344400      -0.30479200
Pt       7.01499000       7.29020000      16.87326000       0.15157500       0.04759300       0.58429200
Pt       9.82099000       7.29020000      16.87326000      -0.00277900       0.36770500      -0.23772600
Pt      12.62699000       7.29020000      16.87326000      -0.13953200       0.05863600       0.54162300
Pt       8.41799000       0.00000000      16.87326000       0.24860000      -0.16731800       0.57076500
Pt       2.80600000       4.86013000      16.87326000       0.45097500      -0.22197100       1.59832900
Pt       0.00000000       0.00000000      10.00000000       0.02314500       0.00019200      -0.18553800
Pt       8.41799000       1.62004000      14.58218000      -0.06110800       0.12380300      -0.34545100
Pt      12.62699000       7.29020000      10.00000000      -0.00374400      -0.00295300      -0.17399400
Pt       9.82099000       7.29020000      10.00000000      -0.00008100       0.01893400      -0.02738800
Pt       7.01499000       7.29020000      10.00000000      -0.01658000       0.01102500      -0.17600900
Pt       4.20900000       7.29020000      10.00000000       0.01216300       0.01653900      -0.01302000
Pt      11.22399000       4.86013000      10.00000000       0.04902500       0.00805000      -0.02138100
Pt       8.41799000       4.86013000      10.00000000      -0.03164200       0.00275500      -0.02988300
Pt       5.61200000       4.86013000      10.00000000       0.02832900      -0.00585800      -0.07776900
Pt       2.80600000       4.86013000      10.00000000      -0.04361200       0.01069800      -0.07090000
Pt       9.82099000       2.43007000      10.00000000      -0.00302800      -0.04133500      -0.12643300
Pt       7.01499000       2.43007000      10.00000000       0.01541400       0.00031700      -0.17766300
Pt       4.20900000       2.43007000      10.00000000       0.00853300       0.00432000      -0.01879200
Pt       1.40300000       2.43007000      10.00000000      -0.02320900      -0.02282500      -0.16490900
Pt       8.41799000       0.00000000      10.00000000      -0.00754500       0.02694600      -0.07089100
Pt       5.61200000       0.00000000      10.00000000       0.03683300      -0.00132000      -0.04661900
Pt       2.80600000       0.00000000      10.00000000      -0.05264800       0.00072700      -0.05440900
Pt       1.40300000       0.81002000      12.29109000      -0.08029300       0.07011700       0.06856300
Pt      12.62699000       4.05011000      14.58218000       0.12443700      -0.10109000      -0.20466000
Pt       4.20900000       0.81002000      12.29109000      -0.03637800      -0.07853800       0.11258300
Pt       9.82099000       0.81002000      12.29109000       0.10214600      -0.10102300       0.05757700
Pt       5.61200000       1.62004000      14.58218000      -0.08486400      -0.07412000      -0.67625300
Pt       2.80600000       1.62004000      14.58218000       0.17102500       0.08030100      -0.35162800
Pt      11.22399000       1.62004000      14.58218000      -0.06530000       0.04382500      -0.53445700
Pt      14.02999000       8.10022000      12.29109000      -0.08026800      -0.00354100       0.01952200
Pt      11.22399000       8.10022000      12.29109000       0.07701600      -0.03131400       0.09634700
Pt       8.41799000       8.10022000      12.29109000      -0.07087600      -0.02959600       0.08401800
Pt       5.61200000       8.10022000      12.29109000       0.07563800       0.07175300       0.03788500
Pt      12.62699000       5.67015000      12.29109000       0.02389300       0.12132100       0.18420100
Pt       9.82099000       5.67015000      12.29109000      -0.00756000      -0.05148800       0.13781100
Pt       7.01499000       5.67015000      12.29109000      -0.01339400       0.12305300       0.15024500
Pt       4.20900000       5.67015000      12.29109000      -0.00378400      -0.03663900       0.15118000
Pt      11.22399000       3.24009000      12.29109000       0.00075900      -0.06511500       0.03312800
Pt       8.41799000       3.24009000      12.29109000       0.00595100      -0.10924800       0.07940500
Pt       5.61200000       3.24009000      12.29109000       0.08161200      -0.03236800       0.11975000
Pt       2.80600000       3.24009000      12.29109000      -0.10871700      -0.05178400       0.11961700
Pt       7.01499000       0.81002000      12.29109000       0.02208200       0.11775300       0.13711900
Pt       4.20900000       4.05011000      14.58218000      -0.05893000       0.13888900      -0.56884900
76
Lattice="11.223990791 0.0 0.0 5.611995395 9.720261156 0.0 0.0 0.0 29.886262579" Properties=species:S:1:pos:R:3:forces:R:3 energy=-467.63362531 pbc="T T T"
C        4.20900000       0.81002000      18.27026000       0.24910400      -0.44850100      -3.29238600
C        9.82099000       7.29020000      18.72826000      -0.14305700      -0.03616900       0.55052700
C        7.01499000       4.05011000      18.27026000       0.01481400       0.02713300      -3.32540700
C       12.62699000       5.67015000      18.27026000       0.15739000       0.86270500      -3.03536200
C        2.80600000       3.24009000      18.27026000       0.44511100       0.03544500      -2.72760800
C       11.22399000       3.24009000      18.27026000      -0.79043900      -0.49123300      -2.92403500
O        9.82099000       7.29020000      19.88626000       0.00757400      -0.00768000      -0.32012200
O        4.20900000       0.81002000      19.42826000       0.04795800      -0.12175000       3.02836900
O       11.22399000       3.24009000      19.42826000      -0.19680300      -0.10569900       2.81420200
O       12.62699000       5.67015000      19.42826000      -0.01770800       0.22791600       2.89675900
O        7.01499000       4.05011000      19.42826000      -0.00453100      -0.01083400       3.06829300
O        2.80600000       3.24009000      19.42826000       0.10196900      -0.01540600       2.65301800
Pt       9.82099000       4.05011000      14.58218000       0.04802300       0.13034200      -0.27188100
Pt      14.02999000       6.48017000      14.58218000       0.08367000      -0.08892300      -0.32288600
Pt       5.61200000       6.48017000      14.58218000       0.00312300      -0.02188100      -0.21109000
Pt       8.41799000       6.48017000      14.58218000       0.14943400       0.03706100      -0.11523100
Pt      11.22399000       6.48017000      14.58218000      -0.21765800      -0.05689600      -0.28060900
Pt      15.43299000       8.91024000      14.58218000       0.04174000      -0.00125200      -0.29031600
Pt       7.01499000       8.91024000      14.58218000       0.11028900       0.05805500      -0.06942300
Pt       9.82099000       8.91024000      14.58218000      -0.04175800      -0.22113700      -0.43574400
Pt      12.62699000       8.91024000      14.58218000      -0.08632000      -0.04168200      -0.07154600
Pt       0.00000000       0.00000000      16.87326000      -0.09061900      -0.42854200      -0.12271000
Pt       2.80600000       0.00000000      16.87326000      -0.43155300      -0.12609000       0.43098800
Pt       5.61200000       0.00000000      16.87326000       0.47845200       0.16174600       0.43572000
Pt       1.40300000       2.43007000      16.87326000      -0.23603200      -0.48520600       0.72973400
Pt       4.20900000       2.43007000      16.87326000       0.08457500       0.06611200       0.74025300
Pt       7.01499000       2.43007000      16.87326000       0.34861600      -0.09661300       0.43406400
Pt       9.82099000       2.43007000      16.87326000       0.00251800      -0.33304800       0.49372500
Pt       7.01499000       4.05011000      14.58218000       0.01317600       0.02479000      -0.59881500
Pt       5.61200000       4.86013000      16.87326000       0.14901400       0.33301300       0.42544600
Pt       8.41799000       4.86013000      16.87326000      -0.40074900      -0.07646100       0.31624500
Pt      11.22399000       4.86013000      16.87326000      -0.33759500       0.02031900       0.55230600
Pt       4.20900000       7.29020000      16.87326000       0.30755500       0.26813300      -0.11105500
Pt       7.01499000       7.29020000      16.87326000      -0.44795700       0.33709900      -0.26366000
Pt       9.82099000       7.29020000      16.87326000      -0.25481700      -0.11356400       0.71427700
Pt      12.62699000       7.29020000      16.87326000       0.40480100       0.29246700       0.48719600
Pt       8.41799000       0.00000000      16.87326000       0.02944600      -0.03893100      -0.12087700
Pt       2.80600000       4.86013000      16.87326000       0.52329000       0.35739400       0.73806900
Pt       0.00000000       0.00000000      10.00000000       0.02022300       0.00738400      -0.07488100
Pt       8.41799000       1.62004000      14.58218000       0.05941500       0.05269400      -0.18041900
Pt      12.62699000       7.29020000      10.00000000       0.03807000       0.01077000      -0.04540400
Pt       9.82099000       7.29020000      10.00000000      -0.00823400       0.02423700      -0.08755000
Pt       7.01499000       7.29020000      10.00000000      -0.03323500      -0.00327200      -0.02065600
Pt       4.20900000       7.29020000      10.00000000      -0.01124100      -0.00966300      -0.18186500
Pt      11.22399000       4.86013000      10.00000000       0.00989700      -0.01036900      -0.06114600
Pt       8.41799000       4.86013000      10.00000000      -0.03215200      -0.02330100      -0.04283600
Pt       5.61200000       4.86013000      10.00000000      -0.02991900      -0.01953000      -0.13685300
Pt       2.80600000       4.86013000      10.00000000       0.04786600      -0.00001500      -0.12892200
Pt       9.82099000       2.43007000      10.00000000      -0.01839400      -0.01345600      -0.04513400
Pt       7.01499000       2.43007000      10.00000000      -0.01109800      -0.01752400      -0.19695600
Pt       4.20900000       2.43007000      10.00000000       0.01589500       0.03195900      -0.10783900