48
Lattice="8.417993093 0.0 0.0 4.208996546 7.290195867 0.0 0.0 0.0 29.886262579" Properties=species:S:1:pos:R:3:forces:R:3 energy=-302.07929282 pbc="T T T"
C        4.20900000       2.43007000      18.72826000       0.21245700       1.16037800       0.65418500
C        8.41799000       1.62004000      18.27026000      -1.48160400       2.19026500      -2.96161000
C        1.40300000       0.00000000      18.49926000       1.90528600      -1.97358200      -2.24631600
C       11.22399000       6.48017000      18.27026000      -0.26242100      -0.37620100      -2.79998300
C        4.20900000       0.00000000      18.49926000       0.33067200      -0.89495600      -2.67573800
C        9.82099000       4.05011000      18.27026000      -0.21581700       0.12610200      -3.09736900
O        8.41799000       1.62004000      19.42826000      -1.67777700       1.77105900       2.73066300
O        4.20900000       2.43007000      19.88626000      -0.02797200       0.68126300      -0.30964900
O        9.82099000       4.05011000      19.42826000      -0.04341700       0.02853000       2.92808000
O       11.22399000       6.48017000      19.42826000       0.07034400      -0.00109300       2.70400500
O        1.40300000       0.00000000      19.65726000       1.06011300      -1.41237600       0.90281900
O        4.20900000       0.00000000      19.65726000       0.01427800      -0.81284000       1.09086400
Pt      11.22399000       6.48017000      14.58218000       0.08905700       0.21026600      -0.37302300
Pt       5.61200000       4.86013000      16.87326000       0.30155400      -0.39310900      -0.42546500
Pt       2.80600000       4.86013000      16.87326000      -0.00044500       0.10914200       0.66920900
Pt       7.01499000       2.43007000      16.87326000       0.32462900       0.28178600       0.47845100
Pt       4.20900000       2.43007000      16.87326000       0.34199800       0.62338900       0.60672600
Pt       1.40300000       2.43007000      16.87326000      -0.37241000       0.54355300       0.48079200
Pt       5.61200000       0.00000000      16.87326000      -0.43329300      -0.29187200       1.36806000
Pt       2.80600000       0.00000000      16.87326000      -0.11388500      -0.70650000       2.33981000
Pt       0.00000000       0.00000000      16.87326000       0.30223200      -0.56447500       1.29528900
Pt       8.41799000       6.48017000      14.58218000      -0.19788900       0.07400000      -0.44538100
Pt       5.61200000       6.48017000      14.58218000       0.09496100       0.05401600      -0.39983600
Pt       8.41799000       4.86013000      16.87326000      -0.15750000      -0.47351700       0.38066200
Pt       0.00000000       0.00000000      10.00000000       0.00316400      -0.00437000      -0.25729700
Pt       9.82099000       4.05011000      14.58218000       0.01349700      -0.04926700      -0.70247100
Pt       2.80600000       0.00000000      10.00000000      -0.02786100       0.01545300      -0.12172500
Pt       5.61200000       0.00000000      10.00000000       0.00946900      -0.00515300      -0.11546700
Pt       1.40300000       2.43007000      10.00000000       0.01159300      -0.02326900      -0.11132600
Pt       4.20900000       2.43007000      10.00000000      -0.02101900       0.01497600      -0.11874500
Pt       7.01499000       2.43007000      10.00000000       0.03382000      -0.04726600      -0.14435100
Pt       2.80600000       4.86013000      10.00000000       0.02244000      -0.00657600      -0.20357300
Pt       5.61200000       4.86013000      10.00000000      -0.01687900       0.02625300      -0.16255600
Pt       8.41799000       4.86013000      10.00000000       0.01320000      -0.00140600      -0.22637100
Pt       1.40300000       0.81002000      12.29109000      -0.14097600      -0.08768300       0.22084600
Pt       4.20900000       4.05011000      14.58218000      -0.01541800      -0.11811200      -0.17602600
Pt       4.20900000       0.81002000      12.29109000       0.05951100      -0.06535200       0.15113300
Pt       2.80600000       3.24009000      12.29109000       0.00128100       0.11473900       0.25039900
Pt       5.61200000       3.24009000      12.29109000       0.03309100      -0.00402800       0.08404300
Pt       8.41799000       3.24009000      12.29109000      -0.07519600       0.08968500       0.12809900
Pt       4.20900000       5.67015000      12.29109000      -0.02780600       0.03332400       0.04290600
Pt       7.01499000       5.67015000      12.29109000       0.05937100      -0.04129100       0.05153000
Pt       9.82099000       5.67015000      12.29109000       0.00036200      -0.01392800       0.05750800
Pt       8.41799000       1.62004000      14.58218000       0.00732200       0.00480100      -0.75325000
Pt       2.80600000       1.62004000      14.58218000       0.07822800       0.12418700      -0.28245500
Pt       5.61200000       1.62004000      14.58218000      -0.09733500       0.11792100      -0.31590900
Pt       7.01499000       0.81002000      12.29109000       0.02958000      -0.05495000       0.05614000
Pt       7.01499000       4.05011000      14.58218000      -0.01659000       0.02807900      -0.24632900
48
Lattice="8.417993093 0.0 0.0 4.208996546 7.290195867 0.0 0.0 0.0 29.657262579" Properties=species:S:1:pos:R:3:forces:R:3 energy=-301.01268686 pbc="T T T"
C        1.40300000       0.00000000      18.49926000       0.05879500       0.48846500      -2.51884000
C        7.01499000       4.86013000      18.49926000       1.78974900       1.44969500      -2.06643600
C        5.61200000       3.24009000      18.27026000      -1.04240900      -1.38022200      -3.17215700
C        7.01499000       0.00000000      18.49926000       1.85661200       1.98718200      -2.14211500
C        4.20900000       0.81002000      18.27026000      -0.67596600       0.44329000      -2.79302400
C        9.82099000       5.67015000      18.27026000      -0.50415400      -2.57539300      -2.99208300
O        7.01499000       4.86013000      19.65726000       1.20247100       1.35630200       0.84607400
O        1.40300000       0.00000000      19.65726000      -0.03490600       0.06434600       1.05408600
O        9.82099000       5.67015000      19.42826000      -1.51812700      -1.83332800       2.72819800
O        7.01499000       0.00000000      19.65726000       1.09508700       1.40366000       0.78665600
O        5.61200000       3.24009000      19.42826000      -1.53943400      -1.79281100       2.83832900
O        4.20900000       0.81002000      19.42826000      -0.05018500      -0.01909100       2.67469400
Pt      11.22399000       6.48017000      14.58218000       0.06496100       0.15218200      -0.55402200
Pt       5.61200000       4.86013000      16.87326000       0.19757900      -0.21419400       1.03657000
Pt       2.80600000       4.86013000      16.87326000      -0.28804000      -0.50551200       0.41610000
Pt       7.01499000       2.43007000      16.87326000       0.18651600       0.20449200       0.29554900
Pt       4.20900000       2.43007000      16.87326000      -0.30275700       0.25962800       0.90111400
Pt       1.40300000       2.43007000      16.87326000       0.03811700       0.34102800      -0.38366300
Pt       5.61200000       0.00000000      16.87326000       0.51060400       0.21077800       1.22706700
Pt       2.80600000       0.00000000      16.87326000      -0.74772300       0.45798500       1.38212100
Pt       0.00000000       0.00000000      16.87326000       0.03846200      -0.08443700       2.44717400
Pt       8.41799000       6.48017000      14.58218000       0.02177000       0.20731500      -0.44114100
Pt       5.61200000       6.48017000      14.58218000      -0.08037700       0.00248500      -0.26655300
Pt       8.41799000       4.86013000      16.87326000      -0.38169400      -0.61712500       1.62841100
Pt       0.00000000       0.00000000      10.00000000      -0.01878100       0.00003300      -0.12954000
Pt       9.82099000       4.05011000      14.58218000      -0.15660400       0.02454400      -0.23441000
Pt       2.80600000       0.00000000      10.00000000       0.02468500      -0.01918300      -0.07576300
Pt       5.61200000       0.00000000      10.00000000       0.00872400      -0.03065600      -0.10086700
Pt       1.40300000       2.43007000      10.00000000       0.00093800       0.01187600      -0.16199600
Pt       4.20900000       2.43007000      10.00000000       0.02600900      -0.00158000      -0.16463100
Pt       7.01499000       2.43007000      10.00000000      -0.00553100       0.00082100      -0.12094600
Pt       2.80600000       4.86013000      10.00000000      -0.01295600      -0.00753400      -0.12719100
Pt       5.61200000       4.86013000      10.00000000       0.01456800      -0.02149900      -0.16915300
Pt       8.41799000       4.86013000      10.00000000       0.00793000       0.02308600      -0.22410000
Pt       1.40300000       0.81002000      12.29109000      -0.02573200       0.02519700       0.01199700
Pt       4.20900000       4.05011000      14.58218000      -0.04650800       0.11029600      -0.13440800
Pt       4.20900000       0.81002000      12.29109000      -0.05197900       0.10468100       0.21250700
Pt       2.80600000       3.24009000      12.29109000       0.03488200      -0.05577800       0.05779100
Pt       5.61200000       3.24009000      12.29109000      -0.02858900       0.05526200      -0.00295200
Pt       8.41799000       3.24009000      12.29109000       0.03289900       0.03061700       0.05488400
Pt       4.20900000       5.67015000      12.29109000       0.05622900      -0.02726900       0.00212200
Pt       7.01499000       5.67015000      12.29109000      -0.06289000      -0.14451200       0.13076500
Pt       9.82099000       5.67015000      12.29109000      -0.00950900      -0.09750000       0.19654300
Pt       8.41799000       1.62004000      14.58218000      -0.05716800       0.06045300      -0.24835700
Pt       2.80600000       1.62004000      14.58218000       0.02122900       0.14007800      -0.47768000
Pt       5.61200000       1.62004000      14.58218000       0.06111400      -0.17826700      -0.66617700
Pt       7.01499000       0.81002000      12.29109000       0.06849100      -0.01942200       0.20053900
Pt       7.01499000       4.05011000      14.58218000       0.22359900       0.00953300      -0.76109000
48
Lattice="8.417993093 0.0 0.0 4.208996546 7.290195867 0.0 0.0 0.0 29.886262579" Properties=species:S:1:pos:R:3:forces:R:3 energy=-301.44269265 pbc="T T T"
C        4.20900000       4.86013000      18.49926000       2.73706100       0.82659800      -2.39667100
C        4.20900000       0.00000000      18.49926000      -2.17578000       2.11170300      -2.54289100
C        7.01499000       2.43007000      18.72826000      -0.14256300       0.44979100       0.27470900
C        0.00000000       0.00000000      18.72826000       0.39261500       0.79322100       0.59923500
C        9.82099000       5.67015000      18.27026000       0.20461800      -1.30868700      -3.30179000
C        2.80600000       3.24009000      18.27026000      -1.08093100      -2.60234800      -3.34249000
O        4.20900000       0.00000000      19.65726000      -1.16168700       1.41296500       1.21219800
O        4.20900000       4.86013000      19.65726000       1.10442700       0.61167600       1.04306100
O        2.80600000       3.24009000      19.42826000      -1.61562100      -1.90798600       3.00263900
O        0.00000000       0.00000000      19.88626000       0.05747700       0.59681600      -0.25837800
O        7.01499000       2.43007000      19.88626000      -0.09531100       0.11444300      -0.12566100
O        9.82099000       5.67015000      19.42826000       1.59240700      -1.77782400       2.93759800
Pt      11.22399000       6.48017000      14.58218000       0.03649300       0.08728600      -0.20386600
Pt       5.61200000       4.86013000      16.87326000      -0.41152000      -0.15352100       1.09423700
Pt       2.80600000       4.86013000      16.87326000       0.25531400      -0.02501000       1.09205700
Pt       7.01499000       2.43007000      16.87326000      -0.04220700       0.37104600       0.66503400
Pt       4.20900000       2.43007000      16.87326000      -0.26712200      -0.05971500       0.24892200
Pt       1.40300000       2.43007000      16.87326000       0.35920100       0.05281100       0.37311700
Pt       5.61200000       0.00000000      16.87326000      -0.77425500       0.17566300       1.07427000
Pt       2.80600000       0.00000000      16.87326000       0.76984800      -0.27435700       1.07272700
Pt       0.00000000       0.00000000      16.87326000       0.47641500       0.44321800       0.48206800
Pt       8.41799000       6.48017000      14.58218000      -0.13300200      -0.03422700      -0.84082100
Pt       5.61200000       6.48017000      14.58218000       0.09320800       0.27465600      -0.09031300
Pt       8.41799000       4.86013000      16.87326000      -0.14306700      -0.00965800       0.35860200
Pt       0.00000000       0.00000000      10.00000000       0.04826000      -0.01958000      -0.07736400
Pt       9.82099000       4.05011000      14.58218000       0.05057000       0.06350800      -0.51213700
Pt       2.80600000       0.00000000      10.00000000       0.02333900      -0.00481100      -0.31349600
Pt       5.61200000       0.00000000      10.00000000      -0.06455800      -0.04232700      -0.10395600
Pt       1.40300000       2.43007000      10.00000000       0.00683500      -0.01958700      -0.13200900
Pt       4.20900000       2.43007000      10.00000000      -0.01188500      -0.03815600      -0.09640500
Pt       7.01499000       2.43007000      10.00000000       0.00690700       0.02603600      -0.16580300
Pt       2.80600000       4.86013000      10.00000000      -0.05730300       0.02190500      -0.16351400
Pt       5.61200000       4.86013000      10.00000000       0.02996700       0.02606800      -0.13115800
Pt       8.41799000       4.86013000      10.00000000       0.02159700       0.02323300      -0.23747100
Pt       1.40300000       0.81002000      12.29109000       0.02481100      -0.04191000       0.12701200
Pt       4.20900000       4.05011000      14.58218000      -0.08194400      -0.01171100      -0.68149100
Pt       4.20900000       0.81002000      12.29109000      -0.06571600      -0.04570800       0.12498200
Pt       2.80600000       3.24009000      12.29109000       0.03044500       0.06337600       0.10656200
Pt       5.61200000       3.24009000      12.29109000       0.07106600      -0.02590400       0.00671700
Pt       8.41799000       3.24009000      12.29109000      -0.09398700      -0.03216200       0.09279600
Pt       4.20900000       5.67015000      12.29109000      -0.00024000      -0.10604600       0.12913300
Pt       7.01499000       5.67015000      12.29109000       0.02258400      -0.00349000       0.06214800
Pt       9.82099000       5.67015000      12.29109000      -0.06561900      -0.06085000       0.15125600
Pt       8.41799000       1.62004000      14.58218000       0.02110300       0.00036800      -0.17874300
Pt       2.80600000       1.62004000      14.58218000      -0.03881100      -0.08650800      -0.48511100
Pt       5.61200000       1.62004000      14.58218000       0.04412200       0.00638800      -0.02843600
Pt       7.01499000       0.81002000      12.29109000       0.02146100       0.08554100       0.05260700
Pt       7.01499000       4.05011000      14.58218000       0.02098100       0.05376200       0.02629200
48
Lattice="8.417993093 0.0 0.0 4.208996546 7.290195867 0.0 0.0 0.0 29.657262579" Properties=species:S:1:pos:R:3:forces:R:3 energy=-303.93925906 pbc="T T T"
C        8.41799000       2.43007000      18.49926000      -0.26278000       0.11783400      -2.46496100
C        5.61200000       1.62004000      18.27026000      -0.09325200      -0.26675200      -2.79278000
C        2.80600000       2.43007000      18.49926000       0.57475400       0.66330200      -2.55116200
C        7.01499000       4.86013000      18.49926000      -0.57340300       0.04755600      -2.58137900
C        9.82099000       5.67015000      18.27026000       0.56492000       0.11521900      -3.06523900
C        1.40300000       0.00000000      18.49926000      -0.28389000      -0.40753800      -2.77068900
O        5.61200000       1.62004000      19.42826000       0.01717900       0.00677900       2.80400400
O        8.41799000       2.43007000      19.65726000      -0.03536200      -0.01276700       0.97719800
O        1.40300000       0.00000000      19.65726000      -0.04321600      -0.09413300       1.29462600
O        7.01499000       4.86013000      19.65726000      -0.00338800      -0.03344700       1.15744600
O        2.80600000       2.43007000      19.65726000       0.07117400       0.04818000       1.04714900
O        9.82099000       5.67015000      19.42826000       0.08351300      -0.05749200       2.97290500
Pt      11.22399000       6.48017000      14.58218000       0.19281700       0.17782100      -0.27839600
Pt       5.61200000       4.86013000      16.87326000       0.44120800      -0.12268000       1.01284300
Pt       2.80600000       4.86013000      16.87326000       0.16115500       0.42214000       0.37509000
Pt       7.01499000       2.43007000      16.87326000       0.34439000      -0.48977300       1.36282600
Pt       4.20900000       2.43007000      16.87326000      -0.45118800      -0.00674300       1.50961600
Pt       1.40300000       2.43007000      16.87326000       0.04362500      -0.05263300       2.04491500
Pt       5.61200000       0.00000000      16.87326000       0.13810300       0.08581500       0.61109200
Pt       2.80600000       0.00000000      16.87326000      -0.77826400      -0.21501400       0.85637500
Pt       0.00000000       0.00000000      16.87326000       0.72571800      -0.63220400       0.98076900
Pt       8.41799000       6.48017000      14.58218000      -0.13290700       0.15908600      -0.40223400
Pt       5.61200000       6.48017000      14.58218000      -0.05721100      -0.06303600      -0.68839500
Pt       8.41799000       4.86013000      16.87326000      -0.64129100       0.29760100       1.29438400
Pt       0.00000000       0.00000000      10.00000000       0.00117000       0.01586600      -0.19953500
Pt       9.82099000       4.05011000      14.58218000      -0.11327800       0.04435400      -0.48434700
Pt       2.80600000       0.00000000      10.00000000      -0.01061000      -0.00279400      -0.16315800
Pt       5.61200000       0.00000000      10.00000000       0.01177700       0.00759100      -0.16733400
Pt       1.40300000       2.43007000      10.00000000      -0.01972400       0.00405900      -0.13664800
Pt       4.20900000       2.43007000      10.00000000       0.00732400      -0.00384300      -0.12888100
Pt       7.01499000       2.43007000      10.00000000       0.01119200      -0.03752800      -0.10325100
Pt       2.80600000       4.86013000      10.00000000       0.03825800      -0.01791700      -0.07190900
Pt       5.61200000       4.86013000      10.00000000       0.00988000      -0.01531000      -0.14284300
Pt       8.41799000       4.86013000      10.00000000      -0.04168400      -0.00006800      -0.12041500
Pt       1.40300000       0.81002000      12.29109000      -0.00256200      -0.03208400       0.02891200
Pt       4.20900000       4.05011000      14.58218000       0.04689700       0.13798200      -0.03452000
Pt       4.20900000       0.81002000      12.29109000       0.02936500      -0.03518000       0.08672500
Pt       2.80600000       3.24009000      12.29109000       0.03699100      -0.07348900       0.12761700
Pt       5.61200000       3.24009000      12.29109000      -0.05030400      -0.00131200       0.04537400
Pt       8.41799000       3.24009000      12.29109000       0.00372700       0.03275400       0.17875500
Pt       4.20900000       5.67015000      12.29109000       0.04996900       0.02493800       0.07686500
Pt       7.01499000       5.67015000      12.29109000      -0.03311100       0.03601400       0.08258300
Pt       9.82099000       5.67015000      12.29109000      -0.02523300       0.00512800       0.09271000
Pt       8.41799000       1.62004000      14.58218000       0.10344000       0.06632500      -0.48591800
Pt       2.80600000       1.62004000      14.58218000      -0.11885300       0.11989000      -0.52878200
Pt       5.61200000       1.62004000      14.58218000       0.00116400       0.15937600      -0.27518000
Pt       7.01499000       0.81002000      12.29109000      -0.02482300      -0.10441000       0.15325400
Pt       7.01499000       4.05011000      14.58218000       0.08662500      -0.01746400      -0.53608000
48
Lattice="8.417993093 0.0 0.0 4.208996546 7.290195867 0.0 0.0 0.0 29.886262579" Properties=species:S:1:pos:R:3:forces:R:3 energy=-297.53045358 pbc="T T T"
C        5.61200000       4.86013000      18.72826000       0.00000000       1.19974500       0.56741100
C        2.80600000       2.43007000      18.49926000      -2.14219800       2.16745800      -2.41228500
C        4.20900000       0.81002000      18.27026000      -0.52816200      -3.96837900      -3.13133000
C        7.01499000       0.81002000      18.27026000       0.52816200      -3.96837900      -3.13133000
C        5.61200000       2.43007000      18.49926000       0.00000000       2.91801500      -1.79577200
C        8.41799000       2.43007000      18.49926000       2.14219800       2.16745800      -2.41228500
O        2.80600000       2.43007000      19.65726000      -1.05067200       1.36835300       0.96142100
O        5.61200000       4.86013000      19.88626000       0.00000000       0.72551200      -0.20392900
O        8.41799000       2.43007000      19.65726000       1.05067200       1.36835300       0.96142100
O        7.01499000       0.81002000      19.42826000       0.04791600      -3.53002600       2.89877100
O        4.20900000       0.81002000      19.42826000      -0.04791600      -3.53002600       2.89877100
O        5.61200000       2.43007000      19.65726000       0.00000000       1.91838400       0.54677900
Pt      11.22399000       6.48017000      14.58218000      -0.12514600      -0.06361400      -0.31158900
Pt       5.61200000       4.86013000      16.87326000       0.00000000       0.97419200       0.69174900
Pt       2.80600000       4.86013000      16.87326000      -0.36194800       0.39786900      -0.34301500
Pt       7.01499000       2.43007000      16.87326000       0.20327400       0.46862000       1.72637100
Pt       4.20900000       2.43007000      16.87326000      -0.20327400       0.46862000       1.72637100
Pt       1.40300000       2.43007000      16.87326000       0.00000000      -0.00282100       2.60530100
Pt       5.61200000       0.00000000      16.87326000      -0.00000000      -1.03315800       0.72368600
Pt       2.80600000       0.00000000      16.87326000       0.21438900      -0.36411400       0.36433000
Pt       0.00000000       0.00000000      16.87326000      -0.21438900      -0.36411400       0.36433000
Pt       8.41799000       6.48017000      14.58218000       0.12514600      -0.06361400      -0.31158900
Pt       5.61200000       6.48017000      14.58218000       0.00000000      -0.04687000      -0.08119700
Pt       8.41799000       4.86013000      16.87326000       0.36194800       0.39786900      -0.34301500
Pt       0.00000000       0.00000000      10.00000000      -0.00742400       0.00365900      -0.19716400
Pt       9.82099000       4.05011000      14.58218000       0.00000000      -0.01027400      -0.33745900
Pt       2.80600000       0.00000000      10.00000000       0.00742400       0.00365900      -0.19716400
Pt       5.61200000       0.00000000      10.00000000       0.00000000       0.02297900      -0.22879000
Pt       1.40300000       2.43007000      10.00000000       0.00000000       0.00813400      -0.25030500
Pt       4.20900000       2.43007000      10.00000000      -0.00493000      -0.01522800      -0.08854000
Pt       7.01499000       2.43007000      10.00000000       0.00493000      -0.01522800      -0.08854000
Pt       2.80600000       4.86013000      10.00000000      -0.02626100      -0.03188800      -0.11892300
Pt       5.61200000       4.86013000      10.00000000       0.00000000       0.02188800      -0.13677100
Pt       8.41799000       4.86013000      10.00000000       0.02626100      -0.03188800      -0.11892300
Pt       1.40300000       0.81002000      12.29109000       0.00000000      -0.06440700       0.10280300
Pt       4.20900000       4.05011000      14.58218000       0.05294700      -0.05295600      -0.18489400
Pt       4.20900000       0.81002000      12.29109000      -0.01327100      -0.10876200       0.16145300
Pt       2.80600000       3.24009000      12.29109000      -0.12102500      -0.03871900       0.14642900
Pt       5.61200000       3.24009000      12.29109000       0.00000000       0.06983600       0.23239000
Pt       8.41799000       3.24009000      12.29109000       0.12102500      -0.03871900       0.14642900
Pt       4.20900000       5.67015000      12.29109000       0.07079300       0.01118700       0.02889800
Pt       7.01499000       5.67015000      12.29109000      -0.07079300       0.01118700       0.02889800
Pt       9.82099000       5.67015000      12.29109000       0.00000000       0.06860200       0.09507500
Pt       8.41799000       1.62004000      14.58218000       0.08126800       0.26528300      -0.42797000
Pt       2.80600000       1.62004000      14.58218000      -0.08126800       0.26528300      -0.42797000
Pt       5.61200000       1.62004000      14.58218000       0.00000000       0.21275400      -0.67489900
Pt       7.01499000       0.81002000      12.29109000       0.01327100      -0.10876200       0.16145300
Pt       7.01499000       4.05011000      14.58218000      -0.05294700      -0.05295600      -0.18489400
48
Lattice="8.417993093 0.0 0.0 4.208996546 7.290195867 0.0 0.0 0.0 29.428262579" Properties=species:S:1:pos:R:3:forces:R:3 energy=-303.73534457 pbc="T T T"
C        4.20900000       0.81002000      18.27026000       0.49522100      -0.52751200      -2.27670900
C        7.01499000       5.67015000      18.27026000       0.41973700      -0.82828300      -2.68225200
C        2.80600000       3.24009000      18.27026000      -0.76818700       1.16471900      -2.60899000
C        5.61200000       3.24009000      18.27026000       0.49281500       0.52413400      -2.47100200
C        1.40300000       0.81002000      18.27026000      -0.72758000       0.16447500      -2.43180900
C        7.01499000       0.81002000      18.27026000       0.21992300      -0.44949500      -2.56867900
O        7.01499000       5.67015000      19.42826000       0.06950000      -0.06568800       2.59493500
O        4.20900000       0.81002000      19.42826000       0.02228200      -0.07398400       2.36743200
O        7.01499000       0.81002000      19.42826000       0.05364000      -0.06756600       2.58723200
O        5.61200000       3.24009000      19.42826000       0.01992200       0.08286500       2.47922000
O        2.80600000       3.24009000      19.42826000      -0.05390300       0.17814700       2.61916600
O        1.40300000       0.81002000      19.42826000      -0.06644700      -0.01312100       2.47051600
Pt      11.22399000       6.48017000      14.58218000      -0.00640000      -0.06046800      -0.16567100
Pt       5.61200000       4.86013000      16.87326000      -0.03453800       0.00752100       0.70165300
Pt       2.80600000       4.86013000      16.87326000      -0.27169800      -0.06397700       0.32619300
Pt       7.01499000       2.43007000      16.87326000       0.21132400       0.14217200       0.65276900
Pt       4.20900000       2.43007000      16.87326000       0.01469900       0.19149900       0.46852100
Pt       1.40300000       2.43007000      16.87326000      -0.23227800       0.36370900       0.65008000
Pt       5.61200000       0.00000000      16.87326000       0.17389500      -0.41224200       0.71885000
Pt       2.80600000       0.00000000      16.87326000       0.01596700      -0.21590700       0.53421600
Pt       0.00000000       0.00000000      16.87326000      -0.21390100      -0.14253000       0.64641700
Pt       8.41799000       6.48017000      14.58218000       0.06009000       0.02041300      -0.46621500
Pt       5.61200000       6.48017000      14.58218000      -0.05772300      -0.06394700      -0.40202000
Pt       8.41799000       4.86013000      16.87326000       0.09560000       0.01909800       0.38409500
Pt       0.00000000       0.00000000      10.00000000       0.00544700       0.01652900      -0.15360200
Pt       9.82099000       4.05011000      14.58218000      -0.14370500      -0.02046700      -0.25084000
Pt       2.80600000       0.00000000      10.00000000       0.01798900       0.01469500      -0.14555600
Pt       5.61200000       0.00000000      10.00000000      -0.01338900       0.02593300      -0.16143000
Pt       1.40300000       2.43007000      10.00000000      -0.00262600      -0.00847600      -0.15769200
Pt       4.20900000       2.43007000      10.00000000       0.02067300      -0.02457300      -0.16420700
Pt       7.01499000       2.43007000      10.00000000      -0.00741900       0.00887800      -0.17354500
Pt       2.80600000       4.86013000      10.00000000       0.00077000      -0.01074000      -0.15743900
Pt       5.61200000       4.86013000      10.00000000       0.00909200      -0.00980200      -0.14723600
Pt       8.41799000       4.86013000      10.00000000      -0.01194000      -0.00393300      -0.17272400
Pt       1.40300000       0.81002000      12.29109000      -0.04013800      -0.04118500       0.02776200
Pt       4.20900000       4.05011000      14.58218000       0.07709000       0.01246600      -0.44534800