66
Lattice="8.417993093 0.0 0.0 5.611995395 9.720261156 0.0 0.0 0.0 29.657262579" Properties=species:S:1:pos:R:3:forces:R:3 energy=-417.58303706 pbc="T T T"
C        2.80600000       2.43007000      18.49926000      -0.55876600      -0.58934100      -2.46376600
C        5.61200000       7.29020000      18.49926000       2.18530700      -1.02929900      -2.18318200
C        8.41799000       3.24009000      18.27026000       1.04788500      -2.30121100      -2.79199500
C        9.82099000       8.91024000      18.27026000      -0.70849400      -0.05238400      -2.86415100
C        4.20900000       4.86013000      18.49926000      -0.49695400       0.34591500      -2.28352000
C        9.82099000       5.67015000      18.27026000       0.42310400       0.79884700      -2.77201500
C        7.01499000       4.86013000      18.49926000      -1.39912000       2.04919400      -1.86143000
C        5.61200000       2.43007000      18.49926000       0.31835800      -0.78894500      -2.39822300
C       12.62699000       8.91024000      18.27026000      -0.63878700       1.81361000      -3.05368100
O        4.20900000       4.86013000      19.65726000      -0.09427600       0.06890600       0.96149500
O        9.82099000       5.67015000      19.42826000      -0.00004800       0.02482100       2.76585000
O        2.80600000       2.43007000      19.65726000      -0.06797600      -0.07457900       1.03767800
O       12.62699000       8.91024000      19.42826000      -1.53665300       1.86238700       2.77074000
O        7.01499000       4.86013000      19.65726000      -0.98985200       1.36742500       0.66739400
O        8.41799000       3.24009000      19.42826000       1.59837400      -1.82012900       2.63297100
O        5.61200000       2.43007000      19.65726000       0.03908500      -0.18397700       1.03100400
O        9.82099000       8.91024000      19.42826000      -0.11178300       0.09463800       2.87767100
O        5.61200000       7.29020000      19.65726000       1.13916700      -1.27734400       0.96191600
Pt       7.01499000       8.91024000      14.58218000       0.05890400       0.05955100      -0.35856200
Pt       9.82099000       8.91024000      14.58218000      -0.02384000      -0.04371800      -0.59956300
Pt       0.00000000       0.00000000      16.87326000      -0.03108000       0.00086000       0.37743500
Pt       2.80600000       0.00000000      16.87326000      -0.03909000      -0.38537700       0.35456600
Pt       5.61200000       0.00000000      16.87326000       0.11315800      -0.38282300       0.62739900
Pt       1.40300000       2.43007000      16.87326000       0.38940500      -0.55647600       1.59704300
Pt       7.01499000       2.43007000      16.87326000      -0.35667200      -0.70985400       1.20706000
Pt       2.80600000       4.86013000      16.87326000       0.68394700       0.31577600       1.35157900
Pt       5.61200000       4.86013000      16.87326000       0.01026900      -0.12634000       1.84772200
Pt       8.41799000       4.86013000      16.87326000      -0.45006800       0.44277700       1.25718700
Pt       7.01499000       7.29020000      16.87326000      -0.79281500       0.43108000       1.02916600
Pt       9.82099000       7.29020000      16.87326000      -0.20848900       0.18132600       0.56560200
Pt      12.62699000       8.91024000      14.58218000      -0.03071600       0.03465700      -0.83725000
Pt       4.20900000       2.43007000      16.87326000      -0.06072900      -0.61594300       2.00465200
Pt       4.20900000       7.29020000      16.87326000       0.54510400       0.18109400       1.00350700
Pt       0.00000000       0.00000000      10.00000000      -0.01338700       0.00916700      -0.19484000
Pt      11.22399000       6.48017000      14.58218000       0.17395500       0.17986300      -0.36495500
Pt       2.80600000       0.00000000      10.00000000       0.01544100       0.01413300      -0.22194400
Pt       5.61200000       0.00000000      10.00000000      -0.00395900      -0.02267500      -0.17898900
Pt       1.40300000       2.43007000      10.00000000      -0.02552400       0.00068300      -0.17559000
Pt       4.20900000       2.43007000      10.00000000       0.01040400      -0.02062600      -0.17891100
Pt       7.01499000       2.43007000      10.00000000       0.02240200      -0.01875100      -0.15546300
Pt       2.80600000       4.86013000      10.00000000       0.03642900      -0.00521400      -0.09691100
Pt       5.61200000       4.86013000      10.00000000      -0.01951300       0.00316700      -0.16207000
Pt       8.41799000       4.86013000      10.00000000      -0.00455300      -0.03362500      -0.13635900
Pt       4.20900000       7.29020000      10.00000000      -0.03498500       0.02470300      -0.13918800
Pt       7.01499000       7.29020000      10.00000000       0.01404500      -0.01001400      -0.07846200
Pt       9.82099000       7.29020000      10.00000000       0.01147500      -0.00526300      -0.08828200
Pt       1.40300000       0.81002000      12.29109000       0.01046000      -0.08541200       0.12341600
Pt       4.20900000       0.81002000      12.29109000      -0.00367300       0.01834200       0.00059000
Pt       7.01499000       0.81002000      12.29109000      -0.02580200      -0.02714100       0.09696700
Pt       2.80600000       3.24009000      12.29109000       0.05085300      -0.07732700       0.15197000
Pt       5.61200000       3.24009000      12.29109000      -0.04491300      -0.03481400       0.01722700
Pt       8.41799000       3.24009000      12.29109000      -0.01768700      -0.04759300       0.15335900
Pt       4.20900000       5.67015000      12.29109000       0.08762100       0.00258200       0.15538900
Pt       7.01499000       5.67015000      12.29109000       0.01611400      -0.04895300       0.05888000
Pt       9.82099000       5.67015000      12.29109000      -0.03105500      -0.02116300       0.17801100
Pt       5.61200000       8.10022000      12.29109000       0.00827200       0.06038100       0.08193900
Pt       8.41799000       8.10022000      12.29109000      -0.01685100       0.05934800       0.10726800
Pt      11.22399000       8.10022000      12.29109000       0.00201000       0.06463300       0.19696000
Pt       8.41799000       1.62004000      14.58218000       0.03503800       0.17159800      -0.19766600
Pt       2.80600000       1.62004000      14.58218000      -0.01449900       0.11872300      -0.34880400
Pt       5.61200000       1.62004000      14.58218000      -0.01523200       0.02377800      -0.31550600
Pt       9.82099000       4.05011000      14.58218000       0.00289200       0.25802100      -0.55041500
Pt       4.20900000       4.05011000      14.58218000       0.02359800       0.13908400      -0.48435100
Pt       7.01499000       4.05011000      14.58218000      -0.03971700       0.24864000      -0.68468200
Pt       5.61200000       6.48017000      14.58218000      -0.07943500      -0.09250900      -0.76439800
Pt       8.41799000       6.48017000      14.58218000      -0.08608000       0.01911100      -0.26648600
66
Lattice="8.417993093 0.0 0.0 5.611995395 9.720261156 0.0 0.0 0.0 29.657262579" Properties=species:S:1:pos:R:3:forces:R:3 energy=-415.94285266 pbc="T T T"
C        4.20900000       5.67015000      18.27026000      -0.61181900      -1.13281700      -2.85947200
C        7.01499000       4.86013000      18.49926000       0.33390000       0.37091200      -2.33382500
C        5.61200000       8.10022000      18.27026000       0.52688000      -0.36943700      -2.41709900
C        8.41799000       7.29020000      18.49926000       0.32388100       0.14117500      -2.30215900
C       11.22399000       8.10022000      18.27026000      -0.84703100       0.19582100      -2.57239300
C        8.41799000       2.43007000      18.49926000       1.14490300       3.81772000      -1.48467800
C        5.61200000       2.43007000      18.49926000      -3.22796500       1.61670900      -2.03911300
C        1.40300000       0.81002000      18.27026000       2.27530200      -1.16534000      -2.94626300
C        7.01499000       0.81002000      18.27026000      -0.54055400      -2.90704500      -2.62512500
O       11.22399000       8.10022000      19.42826000      -0.10415300       0.00954100       2.56333900
O        8.41799000       2.43007000      19.65726000      -0.00045600       2.61878300       0.55742800
O        4.20900000       5.67015000      19.42826000      -0.08446200      -0.12213900       2.73276600
O        7.01499000       0.81002000      19.42826000      -0.00677000      -3.36581600       2.48580800
O        5.61200000       2.43007000      19.65726000      -1.15887100       1.33296600       0.88838000
O        5.61200000       8.10022000      19.42826000       0.07225400      -0.07343200       2.46158500
O        1.40300000       0.81002000      19.42826000       1.72180700      -1.78856500       2.81138600
O        8.41799000       7.29020000      19.65726000       0.03543500       0.09436200       1.01680200
O        7.01499000       4.86013000      19.65726000      -0.05769600       0.09088100       1.07700700
Pt       7.01499000       8.91024000      14.58218000      -0.12250200       0.07794500      -0.67448800
Pt       9.82099000       8.91024000      14.58218000      -0.00198200       0.21091200      -0.32998100
Pt       0.00000000       0.00000000      16.87326000       0.02099400      -0.50792500       0.28534400
Pt       2.80600000       0.00000000      16.87326000      -0.07702900       0.59044500       0.46631500
Pt       5.61200000       0.00000000      16.87326000      -0.24871800      -0.14185000       0.61490700
Pt       1.40300000       2.43007000      16.87326000      -0.00006700       0.52287100       1.33957300
Pt       7.01499000       2.43007000      16.87326000       0.01123700       0.24427100       1.34339800
Pt       2.80600000       4.86013000      16.87326000       0.01186400      -0.18294900       0.48531800
Pt       5.61200000       4.86013000      16.87326000       0.39256400       0.02806300       1.26888200
Pt       8.41799000       4.86013000      16.87326000      -0.28464300      -0.04293500       0.82707400
Pt       7.01499000       7.29020000      16.87326000       0.68761400       0.06130300       1.21722100
Pt       9.82099000       7.29020000      16.87326000      -0.72080900      -0.08652700       1.45627000
Pt      12.62699000       8.91024000      14.58218000       0.12475400      -0.09601800      -0.70197400
Pt       4.20900000       2.43007000      16.87326000       0.51044900      -0.24401300       1.16702100
Pt       4.20900000       7.29020000      16.87326000      -0.03941700      -0.14854600       0.58895600
Pt       0.00000000       0.00000000      10.00000000      -0.03212400       0.00989300      -0.15754700
Pt      11.22399000       6.48017000      14.58218000      -0.10840500       0.18606000      -0.43509200
Pt       2.80600000       0.00000000      10.00000000      -0.01913200      -0.02844800      -0.12839000
Pt       5.61200000       0.00000000      10.00000000       0.04480300      -0.04308100      -0.10251800
Pt       1.40300000       2.43007000      10.00000000      -0.00921000      -0.02181200      -0.12535300
Pt       4.20900000       2.43007000      10.00000000       0.03301400       0.01042700      -0.14218800
Pt       7.01499000       2.43007000      10.00000000      -0.03666400       0.03891500      -0.16037400
Pt       2.80600000       4.86013000      10.00000000       0.00299200      -0.03980900      -0.12861800
Pt       5.61200000       4.86013000      10.00000000      -0.00779800       0.03907800      -0.20439400
Pt       8.41799000       4.86013000      10.00000000       0.01448700      -0.00320300      -0.14624100
Pt       4.20900000       7.29020000      10.00000000       0.03317400      -0.01872900      -0.11916800
Pt       7.01499000       7.29020000      10.00000000      -0.04083200       0.01721300      -0.18484900
Pt       9.82099000       7.29020000      10.00000000       0.01761800      -0.01103400      -0.20541900
Pt       1.40300000       0.81002000      12.29109000       0.00821800      -0.02493900       0.10516700
Pt       4.20900000       0.81002000      12.29109000      -0.00358200      -0.03536600       0.15553800
Pt       7.01499000       0.81002000      12.29109000      -0.02121100       0.09471600       0.12598000
Pt       2.80600000       3.24009000      12.29109000      -0.02314900      -0.08947900       0.17326500
Pt       5.61200000       3.24009000      12.29109000       0.00493900       0.07533600       0.11591100
Pt       8.41799000       3.24009000      12.29109000       0.00612200       0.01152500       0.01525800
Pt       4.20900000       5.67015000      12.29109000       0.04064200      -0.04227000       0.15251000
Pt       7.01499000       5.67015000      12.29109000       0.01837700      -0.05036500       0.05758500
Pt       9.82099000       5.67015000      12.29109000      -0.06637400      -0.01238300       0.01598400
Pt       5.61200000       8.10022000      12.29109000       0.02878700       0.02869500       0.13956000
Pt       8.41799000       8.10022000      12.29109000       0.06703200      -0.08374100       0.04347100
Pt      11.22399000       8.10022000      12.29109000      -0.05853300      -0.06851600       0.11754400
Pt       8.41799000       1.62004000      14.58218000      -0.16743400      -0.04008600      -0.84464700
Pt       2.80600000       1.62004000      14.58218000       0.08903600       0.31492400      -0.10197800
Pt       5.61200000       1.62004000      14.58218000       0.04902600      -0.04759000      -0.50922500
Pt       9.82099000       4.05011000      14.58218000       0.07120600       0.08926500       0.05199400
Pt       4.20900000       4.05011000      14.58218000       0.08229400       0.07432100      -0.36797500
Pt       7.01499000       4.05011000      14.58218000      -0.15051700      -0.19800000      -0.49258400
Pt       5.61200000       6.48017000      14.58218000       0.02902400       0.10607200      -0.55433000
Pt       8.41799000       6.48017000      14.58218000       0.04527900       0.11308100      -0.52708800
66
Lattice="8.417993093 0.0 0.0 5.611995395 9.720261156 0.0 0.0 0.0 29.657262579" Properties=species:S:1:pos:R:3:forces:R:3 energy=-414.02633094 pbc="T T T"
C        9.82099000       4.86013000      18.49926000      -1.15753800       2.27252500      -2.14204900
C        2.80600000       3.24009000      18.27026000       0.97491100      -1.69510800      -2.84545500
C        7.01499000       4.86013000      18.49926000       1.47686800       1.72617600      -2.02289500
C        1.40300000       0.00000000      18.49926000       0.84311800       0.49596500      -1.39681200
C       12.62699000       8.91024000      18.27026000      -2.31555800       1.12234800      -2.95366500
C        8.41799000       8.10022000      18.27026000       1.81293300      -1.59783300      -3.05294200
C        8.41799000       1.62004000      18.27026000      -1.08593400       2.35179400      -2.51670000
C        5.61200000       3.24009000      18.27026000      -0.93666500      -1.83453800      -2.78879900
C        5.61200000       7.29020000      18.49926000       1.05382600      -2.12350800      -1.85309300
O       12.62699000       8.91024000      19.42826000      -1.70776600       1.80386000       2.73396900
O        8.41799000       8.10022000      19.42826000       1.77664000      -1.90146400       2.83263700
O        9.82099000       4.86013000      19.65726000      -1.12993300       1.36822700       0.83089500
O        5.61200000       7.29020000      19.65726000       1.05877800      -1.38638600       0.84317200
O        8.41799000       1.62004000      19.42826000      -1.62947300       1.87844800       2.64362400
O        7.01499000       4.86013000      19.65726000       1.17027500       1.29754900       0.75253200
O        5.61200000       3.24009000      19.42826000      -1.56981600      -1.79064700       2.69940000
O        1.40300000       0.00000000      19.65726000       0.00993100       0.04398600       0.50816800
O        2.80600000       3.24009000      19.42826000       1.56085700      -1.81710200       2.74494000
Pt       7.01499000       8.91024000      14.58218000      -0.13048600      -0.02890300      -0.97409400
Pt       9.82099000       8.91024000      14.58218000      -0.04101200       0.23289800      -0.33764700
Pt       0.00000000       0.00000000      16.87326000       0.17608000       0.17253800       0.99962500
Pt       2.80600000       0.00000000      16.87326000      -0.07692400       0.18450900       1.26998900
Pt       5.61200000       0.00000000      16.87326000       0.06899900      -0.30911800       0.41317200
Pt       1.40300000       2.43007000      16.87326000      -0.04074700      -0.10832100       0.19490900
Pt       7.01499000       2.43007000      16.87326000       0.04249600      -0.46244800       0.42172200
Pt       2.80600000       4.86013000      16.87326000      -0.35108700       0.50518200       1.26336400
Pt       5.61200000       4.86013000      16.87326000       0.28118100      -0.03404500       1.02087600
Pt       8.41799000       4.86013000      16.87326000       0.01844100      -0.22610600       2.23588600
Pt       7.01499000       7.29020000      16.87326000      -0.51990700      -0.40784300       0.92863700
Pt       9.82099000       7.29020000      16.87326000       0.01189000       0.42281600       0.46677700
Pt      12.62699000       8.91024000      14.58218000       0.11641500       0.19103800      -0.66390200
Pt       4.20900000       2.43007000      16.87326000       0.03817300      -0.17052900       0.85696800
Pt       4.20900000       7.29020000      16.87326000       0.10081200      -0.47724500       1.22443100
Pt       0.00000000       0.00000000      10.00000000       0.00120700       0.01944800      -0.19649300
Pt      11.22399000       6.48017000      14.58218000       0.12127800       0.06667800       0.08784600
Pt       2.80600000       0.00000000      10.00000000       0.00704500       0.01579300      -0.17611800
Pt       5.61200000       0.00000000      10.00000000      -0.02398600       0.00564100      -0.18842400
Pt       1.40300000       2.43007000      10.00000000       0.00665800       0.00410900      -0.11734300
Pt       4.20900000       2.43007000      10.00000000      -0.00116600      -0.02602400      -0.14553000
Pt       7.01499000       2.43007000      10.00000000       0.01565300      -0.03241000      -0.12192800
Pt       2.80600000       4.86013000      10.00000000      -0.01124000      -0.00023600      -0.17064300
Pt       5.61200000       4.86013000      10.00000000       0.03545300      -0.02195600      -0.10150800
Pt       8.41799000       4.86013000      10.00000000      -0.01845600       0.03019500      -0.22455800
Pt       4.20900000       7.29020000      10.00000000       0.03823700      -0.00833700      -0.10171200
Pt       7.01499000       7.29020000      10.00000000      -0.03841400       0.04801200      -0.12085400
Pt       9.82099000       7.29020000      10.00000000       0.00336900       0.00191300      -0.12743600
Pt       1.40300000       0.81002000      12.29109000      -0.05038300      -0.06897700       0.01454500
Pt       4.20900000       0.81002000      12.29109000       0.01446200      -0.08017500       0.12614600
Pt       7.01499000       0.81002000      12.29109000       0.02933100      -0.05144000       0.04936500
Pt       2.80600000       3.24009000      12.29109000      -0.04393900       0.00960900       0.12563900
Pt       5.61200000       3.24009000      12.29109000       0.01537000      -0.05428600       0.18104800
Pt       8.41799000       3.24009000      12.29109000       0.01452800       0.06146700       0.10730600
Pt       4.20900000       5.67015000      12.29109000      -0.03640400      -0.01637500       0.09624800
Pt       7.01499000       5.67015000      12.29109000       0.06380400       0.02768100       0.13444300
Pt       9.82099000       5.67015000      12.29109000       0.01030700      -0.05219600       0.09049100
Pt       5.61200000       8.10022000      12.29109000      -0.02663500       0.06200900       0.12716700
Pt       8.41799000       8.10022000      12.29109000       0.02284300       0.00094600       0.08999800
Pt      11.22399000       8.10022000      12.29109000       0.00413800      -0.04012100       0.09472000
Pt       8.41799000       1.62004000      14.58218000      -0.02189100       0.06684200      -0.50790300
Pt       2.80600000       1.62004000      14.58218000       0.17065700      -0.07527900      -0.33609400
Pt       5.61200000       1.62004000      14.58218000      -0.09588500       0.05977200      -0.32957400
Pt       9.82099000       4.05011000      14.58218000      -0.22872500       0.05928400      -0.75929600
Pt       4.20900000       4.05011000      14.58218000       0.02800000       0.37906800      -0.41809100
Pt       7.01499000       4.05011000      14.58218000       0.18343500       0.05025500      -0.67547100
Pt       5.61200000       6.48017000      14.58218000       0.05775500      -0.19358300      -0.39847700
Pt       8.41799000       6.48017000      14.58218000      -0.14618600       0.05395700      -0.44514600
66
Lattice="8.417993093 0.0 0.0 5.611995395 9.720261156 0.0 0.0 0.0 29.886262579" Properties=species:S:1:pos:R:3:forces:R:3 energy=-414.0138064 pbc="T T T"
C        8.41799000       2.43007000      18.49926000       0.27763600       2.85823000      -1.67939000
C        7.01499000       0.81002000      18.27026000       0.46699600      -3.17404000      -2.79847700
C        4.20900000       0.00000000      18.49926000      -2.36932600       1.29514400      -1.90902600
C        5.61200000       2.43007000      18.49926000      -2.15962000       1.30211500      -2.07204900
C        8.41799000       4.86013000      18.72826000       0.36116100       1.23165400       0.61813600
C       11.22399000       8.10022000      18.27026000       1.06101000      -2.77303600      -3.23072600
C        2.80600000       3.24009000      18.27026000       0.42715000       0.94906600      -3.31557000
C        1.40300000       0.81002000      18.27026000       1.01173600      -2.35441300      -2.77825100
C        5.61200000       4.86013000      18.72826000      -0.38085000       1.28306600       0.59081200
O        8.41799000       4.86013000      19.88626000       0.14306100       0.72704100      -0.23185900
O       11.22399000       8.10022000      19.42826000       1.61545400      -1.87849800       2.93456100
O        8.41799000       2.43007000      19.65726000      -0.02950600       1.96613700       0.53708900
O        5.61200000       4.86013000      19.88626000      -0.13606700       0.69854900      -0.23624600
O        2.80600000       3.24009000      19.42826000      -0.01021000       0.09228700       3.07753500
O        4.20900000       0.00000000      19.65726000      -1.15168300       1.36288800       0.81089400
O        1.40300000       0.81002000      19.42826000       1.59196300      -1.82173300       2.71350700
O        5.61200000       2.43007000      19.65726000      -1.03206500       0.68739900       0.82946000
O        7.01499000       0.81002000      19.42826000      -0.00761700      -3.48765900       2.64333500
Pt       7.01499000       8.91024000      14.58218000       0.00340800       0.08481200      -0.08709700
Pt       9.82099000       8.91024000      14.58218000      -0.04077500       0.09291000      -0.59465400
Pt       0.00000000       0.00000000      16.87326000       0.14821800      -0.78165100       0.63960700
Pt       2.80600000       0.00000000      16.87326000       0.34555600      -0.50738300       1.63564400
Pt       5.61200000       0.00000000      16.87326000      -0.29741000      -0.28544100       0.91617400
Pt       1.40300000       2.43007000      16.87326000      -0.32301100       0.17921400       1.15647600
Pt       7.01499000       2.43007000      16.87326000       0.01227800       0.19410500       1.53508400
Pt       2.80600000       4.86013000      16.87326000       0.00571100      -0.02086600       0.41121000
Pt       5.61200000       4.86013000      16.87326000      -0.27899700       0.93789500       0.54056600
Pt       8.41799000       4.86013000      16.87326000       0.23135400       1.03044400       0.53031800
Pt       7.01499000       7.29020000      16.87326000      -0.07880400       0.18835600      -0.49506200
Pt       9.82099000       7.29020000      16.87326000       0.02719100      -0.29235600       0.26846400
Pt      12.62699000       8.91024000      14.58218000       0.05949000       0.13137800      -0.43662100
Pt       4.20900000       2.43007000      16.87326000       0.58126600       0.10472400       1.23827400
Pt       4.20900000       7.29020000      16.87326000      -0.05922300      -0.02916700       0.47266600
Pt       0.00000000       0.00000000      10.00000000       0.02547100       0.02617100      -0.20876400
Pt      11.22399000       6.48017000      14.58218000      -0.02247100      -0.16782800      -0.35414600
Pt       2.80600000       0.00000000      10.00000000      -0.03207800       0.04253000      -0.23780600
Pt       5.61200000       0.00000000      10.00000000       0.00285500      -0.00906800      -0.22932700
Pt       1.40300000       2.43007000      10.00000000      -0.01488100      -0.07187200      -0.20773100
Pt       4.20900000       2.43007000      10.00000000       0.03759200      -0.04651300      -0.15494700
Pt       7.01499000       2.43007000      10.00000000      -0.01393700      -0.00215900      -0.03162200
Pt       2.80600000       4.86013000      10.00000000      -0.01304300      -0.00470900      -0.09987600
Pt       5.61200000       4.86013000      10.00000000      -0.02220900       0.01975900      -0.17901400
Pt       8.41799000       4.86013000      10.00000000       0.05062000      -0.02122800      -0.08349100
Pt       4.20900000       7.29020000      10.00000000      -0.02238600       0.00807000      -0.17323000
Pt       7.01499000       7.29020000      10.00000000      -0.01257600      -0.00055500      -0.19198000
Pt       9.82099000       7.29020000      10.00000000       0.02412100       0.02224400      -0.20403300
Pt       1.40300000       0.81002000      12.29109000       0.02587300      -0.09510000       0.19869200
Pt       4.20900000       0.81002000      12.29109000       0.00505400      -0.11815200       0.15925600
Pt       7.01499000       0.81002000      12.29109000      -0.03453800      -0.12545800       0.07016400
Pt       2.80600000       3.24009000      12.29109000       0.00880000      -0.02146500       0.10780800
Pt       5.61200000       3.24009000      12.29109000      -0.07904600       0.06386800       0.14581700
Pt       8.41799000       3.24009000      12.29109000       0.06965600      -0.00640300       0.14348400
Pt       4.20900000       5.67015000      12.29109000       0.05677900       0.05547400       0.16716100
Pt       7.01499000       5.67015000      12.29109000      -0.01420300       0.04678300       0.07497400
Pt       9.82099000       5.67015000      12.29109000      -0.02655800       0.10749100       0.18212100
Pt       5.61200000       8.10022000      12.29109000       0.03319700      -0.06016200       0.05070500
Pt       8.41799000       8.10022000      12.29109000      -0.01688100      -0.08076200      -0.02686700
Pt      11.22399000       8.10022000      12.29109000      -0.02314900      -0.00520200      -0.02748200
Pt       8.41799000       1.62004000      14.58218000      -0.01520100       0.24018700      -0.76038700
Pt       2.80600000       1.62004000      14.58218000      -0.00742500       0.31186600      -0.44560400
Pt       5.61200000       1.62004000      14.58218000       0.01747200       0.03331300      -0.40877900
Pt       9.82099000       4.05011000      14.58218000      -0.10891200      -0.02186500      -0.42849100
Pt       4.20900000       4.05011000      14.58218000       0.14959500       0.15200500      -0.60285400
Pt       7.01499000       4.05011000      14.58218000      -0.04244900       0.00815500      -0.23834700
Pt       5.61200000       6.48017000      14.58218000      -0.11589300      -0.13340900      -0.11763100
Pt       8.41799000       6.48017000      14.58218000       0.11528000      -0.13717500      -0.12255700
66
Lattice="8.417993093 0.0 0.0 5.611995395 9.720261156 0.0 0.0 0.0 29.657262579" Properties=species:S:1:pos:R:3:forces:R:3 energy=-416.15155012 pbc="T T T"
C        8.41799000       7.29020000      18.49926000      -1.88197100       2.13177200      -1.67973000
C        9.82099000       5.67015000      18.27026000       1.54492900      -2.57482200      -2.95210500
C        7.01499000       0.81002000      18.27026000       1.17473000      -0.68287800      -2.52540900
C        4.20900000       0.81002000      18.27026000      -1.56301200      -1.01420600      -2.70220900
C        5.61200000       8.10022000      18.27026000       0.01584700      -0.95308900      -2.49017100
C        1.40300000       0.81002000      18.27026000       0.38343200       0.85944100      -2.74579500
C       11.22399000       8.10022000      18.27026000       0.41915900      -0.48126400      -2.48866700
C        5.61200000       2.43007000      18.49926000      -0.32859100       3.87544700      -1.59113000
C        7.01499000       4.86013000      18.49926000      -0.51100600      -0.05111900      -2.41474500
O        5.61200000       8.10022000      19.42826000       0.05349100      -0.13294500       2.53392100
O        1.40300000       0.81002000      19.42826000       0.03687100       0.07587300       2.65755700
O        8.41799000       7.29020000      19.65726000      -1.07931900       1.49950900       0.67870000
O        7.01499000       4.86013000      19.65726000       0.00431900       0.01046500       1.13001400
O       11.22399000       8.10022000      19.42826000      -0.05044500      -0.06687600       2.48413200