36
Lattice="5.611995395 0.0 0.0 5.611995395 9.720261156 0.0 0.0 0.0 29.657262579" Properties=species:S:1:pos:R:3:forces:R:3 energy=-217.88687796 pbc="T T T"
C        7.01499000       8.91024000      18.27026000      -0.00000000      -0.01641300      -3.35482100
C        4.20900000       4.86013000      18.49926000      -0.00000000       0.05518100      -2.99441200
O        7.01499000       8.91024000      19.42826000      -0.00000000      -0.00028400       3.06276700
O        4.20900000       4.86013000      19.65726000      -0.00000000      -0.01587200       1.46615600
Pt       7.01499000       7.29020000      16.87326000      -0.00000000       0.01877100       0.54357700
Pt       4.20900000       7.29020000      16.87326000      -0.00000000       0.20410900      -0.29242600
Pt       5.61200000       4.86013000      16.87326000      -0.29899900      -0.15076400       1.28939900
Pt       2.80600000       4.86013000      16.87326000       0.29899900      -0.15076400       1.28939900
Pt       4.20900000       2.43007000      16.87326000      -0.00000000      -0.46440200      -0.03878700
Pt       7.01499000       4.05011000      14.58218000      -0.00000000       0.21189600       0.12120100
Pt       2.80600000       0.00000000      16.87326000       0.14881600       0.12971800       0.61152400
Pt       0.00000000       0.00000000      16.87326000      -0.14881600       0.12971800       0.61152400
Pt       7.01499000       8.91024000      14.58218000      -0.00000000      -0.00443900      -0.60054900
Pt       9.82099000       8.91024000      14.58218000      -0.00000000       0.03271800      -0.22224500
Pt       5.61200000       6.48017000      14.58218000       0.05208200       0.00411500      -0.31371700
Pt       8.41799000       6.48017000      14.58218000      -0.05208200       0.00411500      -0.31371700
Pt       4.20900000       4.05011000      14.58218000      -0.00000000      -0.09199600      -0.59870600
Pt       1.40300000       2.43007000      16.87326000      -0.00000000       0.18664100      -0.19428500
Pt       0.00000000       0.00000000      10.00000000      -0.02055200       0.02843800      -0.07022900
Pt       8.41799000       8.10022000      12.29109000      -0.03188800      -0.01907700       0.06540800
Pt       2.80600000       0.00000000      10.00000000       0.02055200       0.02843800      -0.07022900
Pt       1.40300000       2.43007000      10.00000000      -0.00000000      -0.01133500      -0.02504000
Pt       4.20900000       2.43007000      10.00000000      -0.00000000      -0.06049700      -0.17856600
Pt       2.80600000       4.86013000      10.00000000      -0.02997500       0.01749400      -0.08399000
Pt       5.61200000       4.86013000      10.00000000       0.02997500       0.01749400      -0.08399000
Pt       4.20900000       7.29020000      10.00000000      -0.00000000       0.00641200      -0.03576100
Pt       5.61200000       1.62004000      14.58218000      -0.04409000      -0.00935700      -0.26081800
Pt       7.01499000       7.29020000      10.00000000      -0.00000000      -0.03248100      -0.09867700
Pt       4.20900000       0.81002000      12.29109000      -0.00000000       0.01179300       0.30552000
Pt       2.80600000       3.24009000      12.29109000       0.06793800       0.00465700       0.03418900
Pt       5.61200000       3.24009000      12.29109000      -0.06793800       0.00465700       0.03418900
Pt       4.20900000       5.67015000      12.29109000       0.00000000      -0.04534700       0.10036400
Pt       7.01499000       5.67015000      12.29109000      -0.00000000      -0.01589200       0.32809900
Pt       5.61200000       8.10022000      12.29109000       0.03188800      -0.01907700       0.06540800
Pt       1.40300000       0.81002000      12.29109000      -0.00000000       0.02098400       0.16306000
Pt       2.80600000       1.62004000      14.58218000       0.04409000      -0.00935700      -0.26081800
36
Lattice="5.611995395 0.0 0.0 5.611995395 9.720261156 0.0 0.0 0.0 29.657262579" Properties=species:S:1:pos:R:3:forces:R:3 energy=-217.90086966 pbc="T T T"
C        4.20900000       4.86013000      18.49926000      -0.00000000       0.04897300      -2.96419800
C        1.40300000       0.81002000      18.27026000       0.00000000       0.01304000      -3.38650000
O        4.20900000       4.86013000      19.65726000      -0.00000000      -0.01894600       1.46726100
O        1.40300000       0.81002000      19.42826000      -0.00000000       0.00005000       3.08285200
Pt       7.01499000       7.29020000      16.87326000      -0.00000000      -0.14019600      -0.14095200
Pt       4.20900000       7.29020000      16.87326000      -0.00000000       0.57141000      -0.14270300
Pt       5.61200000       4.86013000      16.87326000      -0.26474800      -0.07731300       1.25597300
Pt       2.80600000       4.86013000      16.87326000       0.26474800      -0.07731300       1.25597300
Pt       4.20900000       2.43007000      16.87326000      -0.00000000      -0.16164200      -0.21130400
Pt       7.01499000       4.05011000      14.58218000      -0.00000000       0.10762400       0.14875100
Pt       2.80600000       0.00000000      16.87326000       0.26313900      -0.18424400       0.63864200
Pt       0.00000000       0.00000000      16.87326000      -0.26313900      -0.18424400       0.63864200
Pt       7.01499000       8.91024000      14.58218000      -0.00000000      -0.05638800      -0.48435400
Pt       9.82099000       8.91024000      14.58218000      -0.00000000       0.06254000      -0.06618200
Pt       5.61200000       6.48017000      14.58218000       0.03902600      -0.00278700      -0.32392400
Pt       8.41799000       6.48017000      14.58218000      -0.03902600      -0.00278700      -0.32392400
Pt       4.20900000       4.05011000      14.58218000      -0.00000000      -0.11951900      -0.56575000
Pt       1.40300000       2.43007000      16.87326000      -0.00000000       0.15726700       0.59699000
Pt       0.00000000       0.00000000      10.00000000      -0.00223300       0.01908700      -0.06186900
Pt       8.41799000       8.10022000      12.29109000      -0.07795900      -0.04036400       0.02795800
Pt       2.80600000       0.00000000      10.00000000       0.00223300       0.01908700      -0.06186900
Pt       1.40300000       2.43007000      10.00000000      -0.00000000      -0.02244200      -0.03840200
Pt       4.20900000       2.43007000      10.00000000      -0.00000000      -0.05365300      -0.15933900
Pt       2.80600000       4.86013000      10.00000000       0.00658300       0.01075700      -0.04524800
Pt       5.61200000       4.86013000      10.00000000      -0.00658300       0.01075700      -0.04524800
Pt       4.20900000       7.29020000      10.00000000      -0.00000000      -0.00362200      -0.02797200
Pt       5.61200000       1.62004000      14.58218000      -0.09333200       0.05996500      -0.45100300
Pt       7.01499000       7.29020000      10.00000000      -0.00000000       0.01487200      -0.17312000
Pt       4.20900000       0.81002000      12.29109000      -0.00000000      -0.04759200       0.18289800
Pt       2.80600000       3.24009000      12.29109000       0.04317300      -0.01822800       0.09260100
Pt       5.61200000       3.24009000      12.29109000      -0.04317300      -0.01822800       0.09260100
Pt       4.20900000       5.67015000      12.29109000       0.00000000       0.03220600       0.21101300
Pt       7.01499000       5.67015000      12.29109000      -0.00000000       0.10160200       0.17155300
Pt       5.61200000       8.10022000      12.29109000       0.07795900      -0.04036400       0.02795800
Pt       1.40300000       0.81002000      12.29109000      -0.00000000      -0.01932800       0.23320000
Pt       2.80600000       1.62004000      14.58218000       0.09333200       0.05996500      -0.45100300
36
Lattice="5.611995395 0.0 0.0 5.611995395 9.720261156 0.0 0.0 0.0 29.657262579" Properties=species:S:1:pos:R:3:forces:R:3 energy=-217.73934475 pbc="T T T"
C        5.61200000       2.43007000      18.49926000      -0.00000000       0.04502800      -3.06827600
C        8.41799000       7.29020000      18.49926000      -0.00000000       0.04502800      -3.06827600
O        5.61200000       2.43007000      19.65726000      -0.00000000      -0.01434200       1.51840500
O        8.41799000       7.29020000      19.65726000      -0.00000000      -0.01434200       1.51840500
Pt       7.01499000       7.29020000      16.87326000       0.26981900      -0.09498300       1.31998800
Pt       4.20900000       7.29020000      16.87326000      -0.26981900      -0.09498300       1.31998800
Pt       5.61200000       4.86013000      16.87326000       0.00000000       0.39345100      -0.14827200
Pt       2.80600000       4.86013000      16.87326000      -0.00000000      -0.30424600      -0.11439800
Pt       4.20900000       2.43007000      16.87326000       0.26981900      -0.09498300       1.31998800
Pt       7.01499000       4.05011000      14.58218000       0.05441800       0.01762700      -0.31881700
Pt       2.80600000       0.00000000      16.87326000       0.00000000       0.39345100      -0.14827200
Pt       0.00000000       0.00000000      16.87326000      -0.00000000      -0.30424600      -0.11439800
Pt       7.01499000       8.91024000      14.58218000      -0.05441800       0.01762700      -0.31881700
Pt       9.82099000       8.91024000      14.58218000       0.05441800       0.01762700      -0.31881700
Pt       5.61200000       6.48017000      14.58218000      -0.00000000       0.18833200       0.15048100
Pt       8.41799000       6.48017000      14.58218000      -0.00000000      -0.09001100      -0.58613700
Pt       4.20900000       4.05011000      14.58218000      -0.05441800       0.01762700      -0.31881700
Pt       1.40300000       2.43007000      16.87326000      -0.26981900      -0.09498300       1.31998800
Pt       0.00000000       0.00000000      10.00000000      -0.00000000      -0.05283300      -0.18360500
Pt       8.41799000       8.10022000      12.29109000      -0.00000000       0.00057000       0.21593300
Pt       2.80600000       0.00000000      10.00000000      -0.00000000      -0.00531900      -0.02586800
Pt       1.40300000       2.43007000      10.00000000       0.00627800       0.02488500      -0.06315600
Pt       4.20900000       2.43007000      10.00000000      -0.00627800       0.02488500      -0.06315600
Pt       2.80600000       4.86013000      10.00000000      -0.00000000      -0.05283300      -0.18360500
Pt       5.61200000       4.86013000      10.00000000      -0.00000000      -0.00531900      -0.02586800
Pt       4.20900000       7.29020000      10.00000000       0.00627800       0.02488500      -0.06315600
Pt       5.61200000       1.62004000      14.58218000      -0.00000000      -0.09001100      -0.58613700
Pt       7.01499000       7.29020000      10.00000000      -0.00627800       0.02488500      -0.06315600
Pt       4.20900000       0.81002000      12.29109000       0.07844100      -0.02297600       0.03652200
Pt       2.80600000       3.24009000      12.29109000      -0.00000000      -0.00973700       0.29266300
Pt       5.61200000       3.24009000      12.29109000      -0.00000000       0.00057000       0.21593300
Pt       4.20900000       5.67015000      12.29109000      -0.07844100      -0.02297600       0.03652200
Pt       7.01499000       5.67015000      12.29109000       0.07844100      -0.02297600       0.03652200
Pt       5.61200000       8.10022000      12.29109000      -0.00000000      -0.00973700       0.29266300
Pt       1.40300000       0.81002000      12.29109000      -0.07844100      -0.02297600       0.03652200
Pt       2.80600000       1.62004000      14.58218000      -0.00000000       0.18833200       0.15048100
36
Lattice="5.611995395 0.0 0.0 5.611995395 9.720261156 0.0 0.0 0.0 29.657262579" Properties=species:S:1:pos:R:3:forces:R:3 energy=-217.40243626 pbc="T T T"
C        7.01499000       4.05011000      18.27026000      -0.00000000      -0.37195100      -3.10483800
C        4.20900000       4.86013000      18.49926000      -0.00000000       0.39585900      -2.66476800
O        7.01499000       4.05011000      19.42826000      -0.00000000      -0.09150700       2.91721700
O        4.20900000       4.86013000      19.65726000      -0.00000000      -0.04226200       1.18075000
Pt       7.01499000       7.29020000      16.87326000       0.00000000       0.64710100      -0.17915800
Pt       4.20900000       7.29020000      16.87326000      -0.00000000       0.63442900      -0.04876500
Pt       5.61200000       4.86013000      16.87326000      -0.44480700       0.07573500       1.62487800
Pt       2.80600000       4.86013000      16.87326000       0.44480700       0.07573500       1.62487800
Pt       4.20900000       2.43007000      16.87326000       0.00000000      -0.89993900      -0.18529300
Pt       7.01499000       4.05011000      14.58218000      -0.00000000       0.21157700      -0.30562200
Pt       2.80600000       0.00000000      16.87326000       0.02226300      -0.04377300       0.06771600
Pt       0.00000000       0.00000000      16.87326000      -0.02226300      -0.04377300       0.06771600
Pt       7.01499000       8.91024000      14.58218000      -0.00000000       0.02398000      -0.29986400
Pt       9.82099000       8.91024000      14.58218000      -0.00000000      -0.02658900      -0.27229800
Pt       5.61200000       6.48017000      14.58218000       0.01174100      -0.04053300      -0.23157600
Pt       8.41799000       6.48017000      14.58218000      -0.01174100      -0.04053300      -0.23157600
Pt       4.20900000       4.05011000      14.58218000      -0.00000000      -0.04467900      -0.59786800
Pt       1.40300000       2.43007000      16.87326000       0.00000000      -0.31258000       0.67207600
Pt       0.00000000       0.00000000      10.00000000       0.02003700       0.04082600      -0.11258500
Pt       8.41799000       8.10022000      12.29109000      -0.01560600       0.06095600       0.10763800
Pt       2.80600000       0.00000000      10.00000000      -0.02003700       0.04082600      -0.11258500
Pt       1.40300000       2.43007000      10.00000000      -0.00000000      -0.02316300      -0.07619800
Pt       4.20900000       2.43007000      10.00000000      -0.00000000      -0.03109500      -0.16608700
Pt       2.80600000       4.86013000      10.00000000       0.01290100      -0.01383100      -0.05937100
Pt       5.61200000       4.86013000      10.00000000      -0.01290100      -0.01383100      -0.05937100
Pt       4.20900000       7.29020000      10.00000000      -0.00000000       0.01707800      -0.02430800
Pt       5.61200000       1.62004000      14.58218000      -0.00307800      -0.01289000      -0.28653700
Pt       7.01499000       7.29020000      10.00000000      -0.00000000       0.01671900      -0.04377900
Pt       4.20900000       0.81002000      12.29109000      -0.00000000      -0.05618400       0.08114800
Pt       2.80600000       3.24009000      12.29109000       0.03610300      -0.08253800       0.07622800
Pt       5.61200000       3.24009000      12.29109000      -0.03610300      -0.08253800       0.07622800
Pt       4.20900000       5.67015000      12.29109000      -0.00000000       0.00057600       0.28497200
Pt       7.01499000       5.67015000      12.29109000      -0.00000000       0.00315900       0.23276000
Pt       5.61200000       8.10022000      12.29109000       0.01560600       0.06095600       0.10763800
Pt       1.40300000       0.81002000      12.29109000      -0.00000000      -0.01843100       0.22713700
Pt       2.80600000       1.62004000      14.58218000       0.00307800      -0.01289000      -0.28653700
36
Lattice="5.611995395 0.0 0.0 5.611995395 9.720261156 0.0 0.0 0.0 29.428262579" Properties=species:S:1:pos:R:3:forces:R:3 energy=-218.03245234 pbc="T T T"
C        5.61200000       6.48017000      18.27026000       0.00000000      -0.02489500      -3.24919500
C        5.61200000       1.62004000      18.27026000       0.00000000      -0.02489500      -3.24919500
O        5.61200000       6.48017000      19.42826000       0.00000000      -0.00018300       3.01399900
O        5.61200000       1.62004000      19.42826000       0.00000000      -0.00018300       3.01399900
Pt       7.01499000       7.29020000      16.87326000       0.18442200       0.08267200       0.58463200
Pt       4.20900000       7.29020000      16.87326000      -0.18442200       0.08267200       0.58463200
Pt       5.61200000       4.86013000      16.87326000       0.00000000       0.11735200       0.49425800
Pt       2.80600000       4.86013000      16.87326000      -0.00000000      -0.25811000      -0.28262000
Pt       4.20900000       2.43007000      16.87326000      -0.18442200       0.08267200       0.58463200
Pt       7.01499000       4.05011000      14.58218000      -0.02074700      -0.01747100      -0.24704700
Pt       2.80600000       0.00000000      16.87326000      -0.00000000      -0.25811000      -0.28262000
Pt       0.00000000       0.00000000      16.87326000       0.00000000       0.11735200       0.49425800
Pt       7.01499000       8.91024000      14.58218000      -0.02074700      -0.01747100      -0.24704700
Pt       9.82099000       8.91024000      14.58218000       0.02074700      -0.01747100      -0.24704700
Pt       5.61200000       6.48017000      14.58218000       0.00000000      -0.02733600      -0.62825700
Pt       8.41799000       6.48017000      14.58218000       0.00000000       0.07993500      -0.21001800
Pt       4.20900000       4.05011000      14.58218000       0.02074700      -0.01747100      -0.24704700
Pt       1.40300000       2.43007000      16.87326000       0.18442200       0.08267200       0.58463200
Pt       0.00000000       0.00000000      10.00000000      -0.00000000      -0.04781000      -0.11419500
Pt       8.41799000       8.10022000      12.29109000       0.00000000      -0.10133100       0.13045300
Pt       2.80600000       0.00000000      10.00000000      -0.00000000       0.00598200      -0.05396100
Pt       1.40300000       2.43007000      10.00000000      -0.06562200       0.02262500      -0.10498700
Pt       4.20900000       2.43007000      10.00000000       0.06562200       0.02262500      -0.10498700
Pt       2.80600000       4.86013000      10.00000000      -0.00000000       0.00598200      -0.05396100
Pt       5.61200000       4.86013000      10.00000000      -0.00000000      -0.04781000      -0.11419500
Pt       4.20900000       7.29020000      10.00000000       0.06562200       0.02262500      -0.10498700
Pt       5.61200000       1.62004000      14.58218000       0.00000000      -0.02733600      -0.62825700
Pt       7.01499000       7.29020000      10.00000000      -0.06562200       0.02262500      -0.10498700
Pt       4.20900000       0.81002000      12.29109000       0.01168100       0.01483400       0.07969000
Pt       2.80600000       3.24009000      12.29109000       0.00000000      -0.10133100       0.13045300
Pt       5.61200000       3.24009000      12.29109000       0.00000000       0.05107400       0.27496000
Pt       4.20900000       5.67015000      12.29109000       0.01168100       0.01483400       0.07969000
Pt       7.01499000       5.67015000      12.29109000      -0.01168100       0.01483400       0.07969000
Pt       5.61200000       8.10022000      12.29109000       0.00000000       0.05107400       0.27496000
Pt       1.40300000       0.81002000      12.29109000      -0.01168100       0.01483400       0.07969000
Pt       2.80600000       1.62004000      14.58218000       0.00000000       0.07993500      -0.21001800
36
Lattice="5.611995395 0.0 0.0 5.611995395 9.720261156 0.0 0.0 0.0 29.886262579" Properties=species:S:1:pos:R:3:forces:R:3 energy=-217.8064826 pbc="T T T"
C        4.20900000       0.00000000      18.49926000       0.01855300       0.05217800      -3.16394400
C        5.61200000       4.86013000      18.72826000       0.00685200       0.00326000       0.14246300
O        4.20900000       0.00000000      19.65726000      -0.00957800      -0.01763000       1.60994000
O        5.61200000       4.86013000      19.88626000      -0.00068500      -0.00036500      -0.05222200
Pt       7.01499000       7.29020000      16.87326000       0.23656500       0.22899700      -0.20337600
Pt       4.20900000       7.29020000      16.87326000      -0.21845400      -0.14669700      -0.14141600
Pt       5.61200000       4.86013000      16.87326000      -0.02796100      -0.00822000       0.98398500
Pt       2.80600000       4.86013000      16.87326000       0.00756200      -0.00967700      -0.15777700
Pt       4.20900000       2.43007000      16.87326000      -0.23019300       0.16320600      -0.15022800
Pt       7.01499000       4.05011000      14.58218000      -0.11955400       0.08838400      -0.17675200
Pt       2.80600000       0.00000000      16.87326000       0.27720400      -0.08885800       1.31829500
Pt       0.00000000       0.00000000      16.87326000      -0.28968900      -0.09974300       1.28200300
Pt       7.01499000       8.91024000      14.58218000      -0.01741800       0.22176300       0.15684600
Pt       9.82099000       8.91024000      14.58218000       0.01409000      -0.11740000      -0.58174700
Pt       5.61200000       6.48017000      14.58218000      -0.03418700      -0.15353400      -0.21205200
Pt       8.41799000       6.48017000      14.58218000       0.02793100       0.03502000      -0.16747200
Pt       4.20900000       4.05011000      14.58218000       0.12531500       0.02038000      -0.18320600
Pt       1.40300000       2.43007000      16.87326000       0.23034500      -0.14740600      -0.17712100
Pt       0.00000000       0.00000000      10.00000000      -0.02252500       0.03798700      -0.13467500
Pt       8.41799000       8.10022000      12.29109000       0.06649900      -0.07006500       0.09249000
Pt       2.80600000       0.00000000      10.00000000       0.01977200       0.01346800      -0.06492300
Pt       1.40300000       2.43007000      10.00000000      -0.04338000      -0.01721400      -0.11864400
Pt       4.20900000       2.43007000      10.00000000       0.04476300      -0.03297200      -0.11353800
Pt       2.80600000       4.86013000      10.00000000       0.02615100       0.03172200      -0.05672600
Pt       5.61200000       4.86013000      10.00000000      -0.03146000       0.01697200      -0.10850800
Pt       4.20900000       7.29020000      10.00000000       0.00800500      -0.05504700      -0.17879400
Pt       5.61200000       1.62004000      14.58218000       0.03010800      -0.02036400      -0.24782400
Pt       7.01499000       7.29020000      10.00000000      -0.00043100       0.00115600      -0.03468000
Pt       4.20900000       0.81002000      12.29109000       0.01409200       0.03188200       0.24683600
Pt       2.80600000       3.24009000      12.29109000      -0.01250200      -0.04580700      -0.02977800
Pt       5.61200000       3.24009000      12.29109000       0.01497900       0.04208600       0.16350500
Pt       4.20900000       5.67015000      12.29109000       0.01314800       0.03592700       0.26266300
Pt       7.01499000       5.67015000      12.29109000      -0.01472300      -0.02631700       0.20721100
Pt       5.61200000       8.10022000      12.29109000      -0.06526400       0.02207300       0.03329500
Pt       1.40300000       0.81002000      12.29109000      -0.01775600      -0.03988100       0.26260500
Pt       2.80600000       1.62004000      14.58218000      -0.02617500       0.05073400      -0.30673300
36
Lattice="5.611995395 0.0 0.0 5.611995395 9.720261156 0.0 0.0 0.0 29.886262579" Properties=species:S:1:pos:R:3:forces:R:3 energy=-217.92089486 pbc="T T T"
C        7.01499000       8.91024000      18.27026000      -0.00000000      -0.17370900      -3.54405900
C        1.40300000       2.43007000      18.72826000      -0.00000000       0.17398600       0.29693700
O        7.01499000       8.91024000      19.42826000      -0.00000000       0.00735100       3.23071300
O        1.40300000       2.43007000      19.88626000      -0.00000000      -0.01453800      -0.15702600
Pt       7.01499000       7.29020000      16.87326000      -0.00000000      -0.21476700       0.65732500
Pt       4.20900000       7.29020000      16.87326000      -0.00000000      -0.33656400      -0.21255900
Pt       5.61200000       4.86013000      16.87326000      -0.26580100       0.34071200      -0.07847600
Pt       2.80600000       4.86013000      16.87326000       0.26580100       0.34071200      -0.07847600
Pt       4.20900000       2.43007000      16.87326000       0.00000000       0.06111900      -0.22565000
Pt       7.01499000       4.05011000      14.58218000      -0.00000000      -0.14694100      -0.21350900
Pt       2.80600000       0.00000000      16.87326000       0.32673300      -0.24228400       0.50457800
Pt       0.00000000       0.00000000      16.87326000      -0.32673300      -0.24228400       0.50457800
Pt       7.01499000       8.91024000      14.58218000      -0.00000000      -0.05799200      -0.56252900
Pt       9.82099000       8.91024000      14.58218000       0.00000000       0.07545900      -0.24410600
Pt       5.61200000       6.48017000      14.58218000       0.03354100      -0.01769000      -0.25513500
Pt       8.41799000       6.48017000      14.58218000      -0.03354100      -0.01769000      -0.25513500
Pt       4.20900000       4.05011000      14.58218000      -0.00000000       0.05210700      -0.19931900
Pt       1.40300000       2.43007000      16.87326000      -0.00000000       0.28863300       0.84591200
Pt       0.00000000       0.00000000      10.00000000       0.05344400      -0.03268300      -0.11409400
Pt       8.41799000       8.10022000      12.29109000      -0.04283400      -0.03304100       0.13847000
Pt       2.80600000       0.00000000      10.00000000      -0.05344400      -0.03268300      -0.11409400
Pt       1.40300000       2.43007000      10.00000000      -0.00000000      -0.02000300      -0.09738100
Pt       4.20900000       2.43007000      10.00000000      -0.00000000       0.01379900      -0.04228900
Pt       2.80600000       4.86013000      10.00000000      -0.05187000       0.02915500      -0.09076600
Pt       5.61200000       4.86013000      10.00000000       0.05187000       0.02915500      -0.09076600
Pt       4.20900000       7.29020000      10.00000000      -0.00000000       0.02362800      -0.07174200
Pt       5.61200000       1.62004000      14.58218000       0.09869100       0.05974600      -0.18535900
Pt       7.01499000       7.29020000      10.00000000      -0.00000000       0.00822700      -0.16141100
Pt       4.20900000       0.81002000      12.29109000      -0.00000000      -0.09407800       0.08927900
Pt       2.80600000       3.24009000      12.29109000      -0.00326900       0.06083900       0.16773600
Pt       5.61200000       3.24009000      12.29109000       0.00326900       0.06083900       0.16773600
Pt       4.20900000       5.67015000      12.29109000      -0.00000000      -0.09019500       0.04217700
Pt       7.01499000       5.67015000      12.29109000      -0.00000000       0.08878700       0.16465300
Pt       5.61200000       8.10022000      12.29109000       0.04283400      -0.03304100       0.13847000
Pt       1.40300000       0.81002000      12.29109000      -0.00000000       0.02618400       0.23067900
Pt       2.80600000       1.62004000      14.58218000      -0.09869100       0.05974600      -0.18535900
36
Lattice="5.611995395 0.0 0.0 5.611995395 9.720261156 0.0 0.0 0.0 29.886262579" Properties=species:S:1:pos:R:3:forces:R:3 energy=-217.97484549 pbc="T T T"
C        4.20900000       2.43007000      18.72826000      -0.01564400       0.02653900       0.23476600
C        5.61200000       8.10022000      18.27026000      -0.00712200      -0.00545300      -3.45587300
O        4.20900000       2.43007000      19.88626000       0.00561700      -0.00957600      -0.10913000
O        5.61200000       8.10022000      19.42826000       0.00381000       0.00752900       3.18958000
Pt       7.01499000       7.29020000      16.87326000       0.25971800      -0.16564500       0.62388500
Pt       4.20900000       7.29020000      16.87326000      -0.25548800      -0.18116400       0.58990000
Pt       5.61200000       4.86013000      16.87326000       0.21983200       0.00429500      -0.17242200
Pt       2.80600000       4.86013000      16.87326000      -0.24235500       0.41161800      -0.16355800
Pt       4.20900000       2.43007000      16.87326000       0.02690400      -0.01752700       0.92562600
Pt       7.01499000       4.05011000      14.58218000      -0.01205000       0.01656500      -0.19587300
Pt       2.80600000       0.00000000      16.87326000      -0.21514000       0.00119800      -0.27184900
Pt       0.00000000       0.00000000      16.87326000       0.21345400      -0.05123100       0.51732100
Pt       7.01499000       8.91024000      14.58218000       0.07012200       0.08321500      -0.44780500
Pt       9.82099000       8.91024000      14.58218000      -0.07135800       0.00852600      -0.39214100
Pt       5.61200000       6.48017000      14.58218000      -0.00754100      -0.08920200      -0.49203500
Pt       8.41799000       6.48017000      14.58218000       0.01727500       0.10126100      -0.06101200
Pt       4.20900000       4.05011000      14.58218000       0.01366900      -0.15993700      -0.21947000
Pt       1.40300000       2.43007000      16.87326000      -0.01692300       0.00759200      -0.20368400
Pt       0.00000000       0.00000000      10.00000000      -0.04699800      -0.04155500      -0.13042500
Pt       8.41799000       8.10022000      12.29109000       0.01940800      -0.07162400       0.15230600
Pt       2.80600000       0.00000000      10.00000000       0.04839100      -0.02668500      -0.10637000