16
Lattice="2.805997698 0.0 0.0 4.208996546 7.290195867 0.0 0.0 0.0 29.657262579" Properties=species:S:1:pos:R:3:forces:R:3 energy=-101.4531742 pbc="T T T"
C        2.80600000       3.24009000      18.27026000      -0.00000000       0.36763200      -3.01821700
C        1.40300000       0.00000000      18.49926000       0.00000000      -0.10727500      -2.65436600
O        2.80600000       3.24009000      19.42826000      -0.00000000      -0.00936200       2.84348500
O        1.40300000       0.00000000      19.65726000      -0.00000000       0.01392600       1.07346100
Pt       0.00000000       0.00000000      10.00000000      -0.00000000      -0.03669500      -0.07230300
Pt       1.40300000       2.43007000      10.00000000      -0.00000000       0.03251700      -0.06272100
Pt       2.80600000       4.86013000      10.00000000      -0.00000000       0.02490900      -0.19187000
Pt       1.40300000       0.81002000      12.29109000      -0.00000000      -0.02692800       0.00386100
Pt       2.80600000       3.24009000      12.29109000       0.00000000       0.04098200       0.10851900
Pt       4.20900000       5.67015000      12.29109000       0.00000000      -0.01464100       0.05599200
Pt       2.80600000       1.62004000      14.58218000      -0.00000000       0.06176400      -0.40276000
Pt       4.20900000       4.05011000      14.58218000      -0.00000000       0.08846500      -0.70195500
Pt       5.61200000       6.48017000      14.58218000      -0.00000000      -0.00383700      -0.19950100
Pt       0.00000000       0.00000000      16.87326000       0.00000000      -0.51711200       2.27907300
Pt       1.40300000       2.43007000      16.87326000      -0.00000000       0.33323500       0.59956800
Pt       2.80600000       4.86013000      16.87326000      -0.00000000      -0.24758100       0.33973200
16
Lattice="2.805997698 0.0 0.0 4.208996546 7.290195867 0.0 0.0 0.0 29.428262579" Properties=species:S:1:pos:R:3:forces:R:3 energy=-101.55943598 pbc="T T T"
C        1.40300000       0.81002000      18.27026000      -0.00000000      -0.06761000      -2.51947100
C        4.20900000       4.05011000      18.27026000      -0.00000000       0.08778000      -2.41806000
O        1.40300000       0.81002000      19.42826000       0.00000000      -0.03766000       2.61117000
O        4.20900000       4.05011000      19.42826000      -0.00000000       0.02694200       2.58229900
Pt       0.00000000       0.00000000      10.00000000      -0.00000000       0.01522000      -0.08850700
Pt       1.40300000       2.43007000      10.00000000       0.00000000       0.01201500      -0.15605300
Pt       2.80600000       4.86013000      10.00000000      -0.00000000      -0.02075400      -0.11224800
Pt       1.40300000       0.81002000      12.29109000       0.00000000       0.01273100       0.03653800
Pt       2.80600000       3.24009000      12.29109000      -0.00000000      -0.01956700       0.07944200
Pt       4.20900000       5.67015000      12.29109000      -0.00000000      -0.00677700       0.00820200
Pt       2.80600000       1.62004000      14.58218000       0.00000000       0.08384800      -0.73729900
Pt       4.20900000       4.05011000      14.58218000      -0.00000000      -0.08816100      -0.60237000
Pt       5.61200000       6.48017000      14.58218000      -0.00000000      -0.02186300      -0.22063300
Pt       0.00000000       0.00000000      16.87326000      -0.00000000      -0.06893900       0.62802400
Pt       1.40300000       2.43007000      16.87326000       0.00000000       0.16166900       0.36726400
Pt       2.80600000       4.86013000      16.87326000       0.00000000      -0.06887500       0.54170000
16
Lattice="2.805997698 0.0 0.0 4.208996546 7.290195867 0.0 0.0 0.0 29.657262579" Properties=species:S:1:pos:R:3:forces:R:3 energy=-101.39011624 pbc="T T T"
C        2.80600000       1.62004000      18.27026000       0.00000000      -0.36062200      -2.91948200
C        4.20900000       4.86013000      18.49926000       0.00000000       0.26791300      -2.66244200
O        2.80600000       1.62004000      19.42826000       0.00000000       0.00108000       2.81197300
O        4.20900000       4.86013000      19.65726000       0.00000000      -0.05399600       1.06483100
Pt       0.00000000       0.00000000      10.00000000       0.00000000       0.03323500      -0.09819700
Pt       1.40300000       2.43007000      10.00000000       0.00000000       0.00536500      -0.15689500
Pt       2.80600000       4.86013000      10.00000000       0.00000000      -0.03100500      -0.04528600
Pt       1.40300000       0.81002000      12.29109000       0.00000000       0.00685200      -0.01715300
Pt       2.80600000       3.24009000      12.29109000      -0.00000000      -0.12546100       0.13671300
Pt       4.20900000       5.67015000      12.29109000       0.00000000       0.05664600       0.07552000
Pt       2.80600000       1.62004000      14.58218000       0.00000000       0.04430300      -0.68604400
Pt       4.20900000       4.05011000      14.58218000       0.00000000       0.09525900      -0.27446100
Pt       5.61200000       6.48017000      14.58218000       0.00000000      -0.01553300      -0.40942600
Pt       0.00000000       0.00000000      16.87326000      -0.00000000       0.45793400       0.27322500
Pt       1.40300000       2.43007000      16.87326000       0.00000000      -0.45351000       0.54488800
Pt       2.80600000       4.86013000      16.87326000      -0.00000000       0.07154100       2.36223600
16
Lattice="2.805997698 0.0 0.0 4.208996546 7.290195867 0.0 0.0 0.0 29.886262579" Properties=species:S:1:pos:R:3:forces:R:3 energy=-101.21848439 pbc="T T T"
C        2.80600000       4.86013000      18.72826000       0.00000000       0.82213500      -0.21989600
C        1.40300000       2.43007000      18.72826000      -0.00000000      -0.79415200      -0.19185100
O        2.80600000       4.86013000      19.88626000      -0.00000000       0.21393800       0.20136100
O        1.40300000       2.43007000      19.88626000      -0.00000000      -0.22621900       0.20172900
Pt       0.00000000       0.00000000      10.00000000      -0.00000000       0.04322600      -0.21461700
Pt       1.40300000       2.43007000      10.00000000      -0.00000000      -0.03137400      -0.18594300
Pt       2.80600000       4.86013000      10.00000000      -0.00000000      -0.01309900      -0.02462300
Pt       1.40300000       0.81002000      12.29109000      -0.00000000       0.03277500      -0.03184300
Pt       2.80600000       3.24009000      12.29109000      -0.00000000      -0.13873000       0.11202200
Pt       4.20900000       5.67015000      12.29109000       0.00000000       0.10960400       0.18510500
Pt       2.80600000       1.62004000      14.58218000      -0.00000000       0.12666400      -0.26359500
Pt       4.20900000       4.05011000      14.58218000      -0.00000000       0.02918200      -0.21695600
Pt       5.61200000       6.48017000      14.58218000      -0.00000000      -0.17248700      -0.18854700
Pt       0.00000000       0.00000000      16.87326000      -0.00000000       0.02166900      -0.37762900
Pt       1.40300000       2.43007000      16.87326000       0.00000000      -0.66871600       0.60685400
Pt       2.80600000       4.86013000      16.87326000       0.00000000       0.64558400       0.60842900
16
Lattice="2.805997698 0.0 0.0 4.208996546 7.290195867 0.0 0.0 0.0 29.886262579" Properties=species:S:1:pos:R:3:forces:R:3 energy=-100.76648677 pbc="T T T"
C        2.80600000       2.43007000      18.49926000      -0.00000000      -1.19905200      -3.16218200
C        2.80600000       4.86013000      18.72826000       0.00000000       1.28667900       0.22516400
O        2.80600000       2.43007000      19.65726000      -0.00000000      -0.78306500       1.36628300
O        2.80600000       4.86013000      19.88626000       0.00000000       0.66173000      -0.02589700
Pt       0.00000000       0.00000000      10.00000000      -0.00000000       0.04557000      -0.16652900
Pt       1.40300000       2.43007000      10.00000000      -0.00000000      -0.01899000      -0.17374900
Pt       2.80600000       4.86013000      10.00000000       0.00000000      -0.01773400      -0.04650700
Pt       1.40300000       0.81002000      12.29109000       0.00000000       0.02340800      -0.00740000
Pt       2.80600000       3.24009000      12.29109000       0.00000000      -0.12630400       0.11306700
Pt       4.20900000       5.67015000      12.29109000      -0.00000000       0.06714400       0.17546200
Pt       2.80600000       1.62004000      14.58218000       0.00000000       0.12317800      -0.26549100
Pt       4.20900000       4.05011000      14.58218000       0.00000000       0.18316200      -0.40796100
Pt       5.61200000       6.48017000      14.58218000       0.00000000      -0.16279400      -0.13475000
Pt       0.00000000       0.00000000      16.87326000       0.00000000       0.02868700      -0.35212400
Pt       1.40300000       2.43007000      16.87326000       0.00000000      -0.91593700       2.30675700
Pt       2.80600000       4.86013000      16.87326000       0.00000000       0.80431700       0.55585700
16
Lattice="2.805997698 0.0 0.0 4.208996546 7.290195867 0.0 0.0 0.0 29.428262579" Properties=species:S:1:pos:R:3:forces:R:3 energy=-101.15268895 pbc="T T T"
C        4.20900000       5.67015000      18.27026000       0.00000000       1.29904700      -2.49169800
C        2.80600000       3.24009000      18.27026000      -0.00000000      -1.17838400      -2.36349000
O        4.20900000       5.67015000      19.42826000      -0.00000000       0.16680500       2.49903500
O        2.80600000       3.24009000      19.42826000      -0.00000000      -0.09892300       2.49237200
Pt       0.00000000       0.00000000      10.00000000      -0.00000000       0.00114000      -0.14609500
Pt       1.40300000       2.43007000      10.00000000      -0.00000000       0.00296500      -0.12291900
Pt       2.80600000       4.86013000      10.00000000      -0.00000000       0.02438900      -0.12144800
Pt       1.40300000       0.81002000      12.29109000      -0.00000000       0.03764200      -0.01157900
Pt       2.80600000       3.24009000      12.29109000      -0.00000000      -0.06429400       0.00457100
Pt       4.20900000       5.67015000      12.29109000      -0.00000000       0.02311000       0.14970800
Pt       2.80600000       1.62004000      14.58218000      -0.00000000      -0.08044000      -0.19356400
Pt       4.20900000       4.05011000      14.58218000      -0.00000000       0.16408500      -0.73364800
Pt       5.61200000       6.48017000      14.58218000      -0.00000000      -0.03977200      -0.54786900
Pt       0.00000000       0.00000000      16.87326000      -0.00000000       0.05373900       0.44969400
Pt       1.40300000       2.43007000      16.87326000       0.00000000      -0.52551500       0.67590100
Pt       2.80600000       4.86013000      16.87326000      -0.00000000       0.21440600       0.46102800
16
Lattice="2.805997698 0.0 0.0 4.208996546 7.290195867 0.0 0.0 0.0 29.428262579" Properties=species:S:1:pos:R:3:forces:R:3 energy=-101.02840879 pbc="T T T"
C        5.61200000       6.48017000      18.27026000      -0.00000000       1.17627700      -2.28399100
C        4.20900000       4.05011000      18.27026000       0.00000000      -1.28196600      -2.40432100
O        5.61200000       6.48017000      19.42826000      -0.00000000       0.10469800       2.45175100
O        4.20900000       4.05011000      19.42826000      -0.00000000      -0.17396100       2.46561500
Pt       0.00000000       0.00000000      10.00000000      -0.00000000      -0.01258700      -0.09938400
Pt       1.40300000       2.43007000      10.00000000      -0.00000000       0.00646700      -0.13690500
Pt       2.80600000       4.86013000      10.00000000      -0.00000000       0.01523700      -0.12339400
Pt       1.40300000       0.81002000      12.29109000      -0.00000000       0.05592400       0.08136600
Pt       2.80600000       3.24009000      12.29109000      -0.00000000       0.01468500      -0.03844200
Pt       4.20900000       5.67015000      12.29109000       0.00000000      -0.10983000       0.14063800
Pt       2.80600000       1.62004000      14.58218000      -0.00000000      -0.08361400      -0.25987900
Pt       4.20900000       4.05011000      14.58218000      -0.00000000       0.05809800      -0.66945900
Pt       5.61200000       6.48017000      14.58218000      -0.00000000       0.01009500      -0.72909200
Pt       0.00000000       0.00000000      16.87326000      -0.00000000       0.39005600       0.76029600
Pt       1.40300000       2.43007000      16.87326000      -0.00000000       0.05163400       0.36238300
Pt       2.80600000       4.86013000      16.87326000      -0.00000000      -0.22121400       0.48281600
16
Lattice="2.805997698 0.0 0.0 4.208996546 7.290195867 0.0 0.0 0.0 29.657262579" Properties=species:S:1:pos:R:3:forces:R:3 energy=-100.79265869 pbc="T T T"
C        4.20900000       4.86013000      18.49926000       0.00000000       1.07830900      -2.78745300
C        2.80600000       2.43007000      18.49926000       0.00000000      -0.90762900      -2.77918500
O        4.20900000       4.86013000      19.65726000       0.00000000       0.11120200       1.15415600
O        2.80600000       2.43007000      19.65726000       0.00000000      -0.15383700       1.16790800
Pt       0.00000000       0.00000000      10.00000000       0.00000000       0.03235200      -0.15748100
Pt       1.40300000       2.43007000      10.00000000       0.00000000      -0.02426400      -0.12136000
Pt       2.80600000       4.86013000      10.00000000       0.00000000       0.00376000      -0.03477600
Pt       1.40300000       0.81002000      12.29109000       0.00000000       0.00438600      -0.01601400
Pt       2.80600000       3.24009000      12.29109000       0.00000000      -0.14059000       0.14609900
Pt       4.20900000       5.67015000      12.29109000       0.00000000       0.06883700       0.17410300
Pt       2.80600000       1.62004000      14.58218000       0.00000000       0.13792400      -0.23909100
Pt       4.20900000       4.05011000      14.58218000      -0.00000000       0.22249700      -0.46310900
Pt       5.61200000       6.48017000      14.58218000       0.00000000      -0.00401000      -0.36118000
Pt       0.00000000       0.00000000      16.87326000       0.00000000       0.07227500      -0.30223600
Pt       1.40300000       2.43007000      16.87326000      -0.00000000      -0.98021000       2.29119200
Pt       2.80600000       4.86013000      16.87326000       0.00000000       0.47899700       2.32842700
16
Lattice="2.805997698 0.0 0.0 4.208996546 7.290195867 0.0 0.0 0.0 29.657262579" Properties=species:S:1:pos:R:3:forces:R:3 energy=-98.1655345 pbc="T T T"
C        4.20900000       5.67015000      18.27026000      -0.00000000      -3.88250700      -2.80433400
C        1.40300000       0.00000000      18.49926000       0.00000000       4.27261700      -1.72916400
O        4.20900000       5.67015000      19.42826000      -0.00000000      -3.47868500       2.69030700
O        1.40300000       0.00000000      19.65726000       0.00000000       2.67393400       0.55531300
Pt       0.00000000       0.00000000      10.00000000       0.00000000      -0.01994600      -0.07380400
Pt       1.40300000       2.43007000      10.00000000       0.00000000       0.03376700      -0.10600700
Pt       2.80600000       4.86013000      10.00000000       0.00000000      -0.01504100      -0.16127900
Pt       1.40300000       0.81002000      12.29109000       0.00000000       0.05623300       0.14069700
Pt       2.80600000       3.24009000      12.29109000       0.00000000      -0.02671800      -0.03204000
Pt       4.20900000       5.67015000      12.29109000       0.00000000      -0.11646800       0.16154100
Pt       2.80600000       1.62004000      14.58218000       0.00000000      -0.15925400      -0.21837300
Pt       4.20900000       4.05011000      14.58218000       0.00000000       0.02863500      -0.19318000
Pt       5.61200000       6.48017000      14.58218000       0.00000000       0.28688400      -0.71238400
Pt       0.00000000       0.00000000      16.87326000       0.00000000       0.88402400       2.00526400
Pt       1.40300000       2.43007000      16.87326000      -0.00000000       0.46740000      -0.26254800
Pt       2.80600000       4.86013000      16.87326000       0.00000000      -1.00487300       0.73998800
16
Lattice="2.805997698 0.0 0.0 4.208996546 7.290195867 0.0 0.0 0.0 29.886262579" Properties=species:S:1:pos:R:3:forces:R:3 energy=-101.58848464 pbc="T T T"
C        4.20900000       4.05011000      18.27026000      -0.00000000      -0.31279800      -3.13360400
C        0.00000000       0.00000000      18.72826000      -0.00000000       0.20553200       0.27128700
O        4.20900000       4.05011000      19.42826000      -0.00000000      -0.03786200       2.98926500
O        0.00000000       0.00000000      19.88626000       0.00000000      -0.02563400      -0.13074100
Pt       0.00000000       0.00000000      10.00000000       0.00000000      -0.05269700      -0.05972000
Pt       1.40300000       2.43007000      10.00000000      -0.00000000       0.04964400      -0.10535500
Pt       2.80600000       4.86013000      10.00000000       0.00000000       0.01069000      -0.19998100
Pt       1.40300000       0.81002000      12.29109000      -0.00000000       0.05094800       0.07943500
Pt       2.80600000       3.24009000      12.29109000       0.00000000       0.02904200      -0.01491200
Pt       4.20900000       5.67015000      12.29109000       0.00000000      -0.11020600       0.09887900
Pt       2.80600000       1.62004000      14.58218000      -0.00000000      -0.15463100      -0.19258000
Pt       4.20900000       4.05011000      14.58218000      -0.00000000       0.02742900      -0.70127700
Pt       5.61200000       6.48017000      14.58218000      -0.00000000       0.06337800      -0.21646600
Pt       0.00000000       0.00000000      16.87326000      -0.00000000       0.29312500       0.61443400
Pt       1.40300000       2.43007000      16.87326000      -0.00000000       0.42482700       0.21134400
Pt       2.80600000       4.86013000      16.87326000      -0.00000000      -0.46078700       0.48999200
