34
Lattice="5.611995395 0.0 0.0 4.208996546 7.290195867 0.0 0.0 0.0 29.657262579" Properties=species:S:1:pos:R:3:forces:R:3 energy=-215.13873908 pbc="T T T"
C        4.20900000       4.05011000      18.27026000      -1.37913600       1.85962800      -2.71991600
C        1.40300000       0.00000000      18.49926000      -0.10404000      -0.06146500      -2.28049600
C        4.20900000       0.81002000      18.27026000      -1.21431100      -1.88282200      -2.86056800
C        5.61200000       2.43007000      18.49926000       3.86943900       0.08437800      -1.70232200
C        7.01499000       4.86013000      18.49926000       0.43908600       0.23926400      -2.28524600
O        1.40300000       0.00000000      19.65726000       0.01631600      -0.03316300       1.00425100
O        7.01499000       4.86013000      19.65726000       0.10812500      -0.01399400       1.00840200
O        4.20900000       4.05011000      19.42826000      -1.62946800       1.74793400       2.72272300
O        4.20900000       0.81002000      19.42826000      -1.64951100      -1.74290100       2.77717300
O        5.61200000       2.43007000      19.65726000       2.16050700      -0.02172400       0.63638900
Pt       5.61200000       6.48017000      14.58218000      -0.01548000       0.04275200      -0.49123400
Pt       5.61200000       4.86013000      16.87326000       0.38413000      -0.02341600       1.00144600
Pt       2.80600000       4.86013000      16.87326000      -0.40873100      -0.39478700       1.49389400
Pt       4.20900000       2.43007000      16.87326000       0.03329000       0.04904700       0.95269700
Pt       1.40300000       2.43007000      16.87326000      -0.79214200      -0.15517600       0.96470900
Pt       2.80600000       0.00000000      16.87326000      -0.54647500       0.23879100       1.45557200
Pt       0.00000000       0.00000000      16.87326000       0.61368800      -0.46161800       1.15569700
Pt       0.00000000       0.00000000      10.00000000       0.01740200      -0.01484200      -0.21244000
Pt       7.01499000       4.05011000      14.58218000       0.02436500       0.08083400      -0.70934200
Pt       2.80600000       1.62004000      14.58218000       0.01185300       0.41223400      -0.21679900
Pt       5.61200000       1.62004000      14.58218000      -0.01868800      -0.06693300      -1.00084800
Pt       7.01499000       5.67015000      12.29109000      -0.01545100      -0.09709000       0.11807100
Pt       4.20900000       5.67015000      12.29109000      -0.00461500       0.01465700       0.09525100
Pt       5.61200000       3.24009000      12.29109000       0.00449900      -0.03675200       0.06231900
Pt       2.80600000       3.24009000      12.29109000      -0.01019100      -0.02968800       0.10203100
Pt       4.20900000       0.81002000      12.29109000       0.11761400       0.01480500       0.14423900
Pt       1.40300000       0.81002000      12.29109000      -0.04434000      -0.02544000       0.12112300
Pt       5.61200000       4.86013000      10.00000000       0.01047800       0.02773600      -0.17417200
Pt       2.80600000       4.86013000      10.00000000       0.00480000      -0.03249200      -0.16080800
Pt       4.20900000       2.43007000      10.00000000      -0.02271900       0.00373900      -0.16858700
Pt       1.40300000       2.43007000      10.00000000       0.01400300       0.00323400      -0.18414200
Pt       2.80600000       0.00000000      10.00000000       0.00725200      -0.00373800      -0.05415600
Pt       4.20900000       4.05011000      14.58218000      -0.02451000       0.12855000      -0.35121300
Pt       8.41799000       6.48017000      14.58218000       0.04295900       0.15045700      -0.24369600
34
Lattice="5.611995395 0.0 0.0 4.208996546 7.290195867 0.0 0.0 0.0 29.657262579" Properties=species:S:1:pos:R:3:forces:R:3 energy=-214.09627007 pbc="T T T"
C        4.20900000       5.67015000      18.27026000       0.80293000      -1.00056200      -2.75488000
C        4.20900000       0.00000000      18.49926000       0.30906100       0.44079600      -1.58578900
C        5.61200000       3.24009000      18.27026000      -1.02466400      -2.38613400      -2.59530000
C        2.80600000       1.62004000      18.27026000      -1.36988200       1.68927600      -2.56635500
C        7.01499000       4.86013000      18.49926000       1.94857600       1.47073500      -1.74979400
O        4.20900000       0.00000000      19.65726000       0.03371300       0.09128300       0.55395600
O        7.01499000       4.86013000      19.65726000       1.07129700       1.31812600       0.71708300
O        4.20900000       5.67015000      19.42826000       1.68203800      -1.78557200       2.56745600
O        5.61200000       3.24009000      19.42826000      -1.60521500      -1.84125800       2.67334500
O        2.80600000       1.62004000      19.42826000      -1.65949500       1.85470700       2.70653100
Pt       5.61200000       6.48017000      14.58218000       0.08392300       0.19840500      -0.05864800
Pt       5.61200000       4.86013000      16.87326000       0.39194400       0.32578500       1.26051900
Pt       2.80600000       4.86013000      16.87326000      -0.60511300      -0.46134300       1.11202800
Pt       4.20900000       2.43007000      16.87326000      -0.06987200       0.14057400       0.40676500
Pt       1.40300000       2.43007000      16.87326000       0.14579300      -0.49445300       0.40923000
Pt       2.80600000       0.00000000      16.87326000       0.39609300       0.12515500       1.04306400
Pt       0.00000000       0.00000000      16.87326000      -0.49620700       0.10693500       1.29886600
Pt       0.00000000       0.00000000      10.00000000      -0.00212100      -0.03209400      -0.13726000
Pt       7.01499000       4.05011000      14.58218000       0.04510900       0.06635300      -0.62367500
Pt       2.80600000       1.62004000      14.58218000      -0.00686300       0.15540500      -0.58921900
Pt       5.61200000       1.62004000      14.58218000       0.07718800      -0.09180700      -0.43771500
Pt       7.01499000       5.67015000      12.29109000       0.04215900      -0.01806300       0.10113400
Pt       4.20900000       5.67015000      12.29109000      -0.01848500      -0.01236700       0.13110700
Pt       5.61200000       3.24009000      12.29109000       0.01874200      -0.01485000       0.11193400
Pt       2.80600000       3.24009000      12.29109000      -0.02382400      -0.05808300       0.10234500
Pt       4.20900000       0.81002000      12.29109000      -0.00118000      -0.03014300       0.08562100
Pt       1.40300000       0.81002000      12.29109000      -0.00369300       0.01335800       0.08119200
Pt       5.61200000       4.86013000      10.00000000      -0.00355200       0.02517000      -0.11046700
Pt       2.80600000       4.86013000      10.00000000       0.00404300      -0.02693500      -0.19806500
Pt       4.20900000       2.43007000      10.00000000      -0.00608700      -0.02583400      -0.14207300
Pt       1.40300000       2.43007000      10.00000000       0.00705000       0.01289200      -0.21005300
Pt       2.80600000       0.00000000      10.00000000      -0.00253300       0.03343200      -0.13563800
Pt       4.20900000       4.05011000      14.58218000      -0.05269700       0.24050100      -0.44453600
Pt       8.41799000       6.48017000      14.58218000      -0.10817600      -0.02938700      -1.02270800
34
Lattice="5.611995395 0.0 0.0 4.208996546 7.290195867 0.0 0.0 0.0 29.886262579" Properties=species:S:1:pos:R:3:forces:R:3 energy=-215.51863613 pbc="T T T"
C        4.20900000       4.86013000      18.49926000       0.00004500       3.01169100      -2.00285000
C        5.61200000       3.24009000      18.27026000       1.15110700      -1.58562400      -3.07878700
C        2.80600000       3.24009000      18.27026000      -1.14464600      -1.60622200      -3.09113500
C        0.00000000       0.00000000      18.72826000       0.00632800       0.93442100       0.66074000
C        2.80600000       0.00000000      18.72826000      -0.00629300      -0.06378300       0.29881600
O        5.61200000       3.24009000      19.42826000       1.60003400      -1.82124300       2.94230000
O        2.80600000       0.00000000      19.88626000       0.00099800      -0.01632900      -0.10934200
O        4.20900000       4.86013000      19.65726000      -0.00169800       1.94793200       0.80710200
O        2.80600000       3.24009000      19.42826000      -1.60147700      -1.81992100       2.96042200
O        0.00000000       0.00000000      19.88626000      -0.00142100       0.74547800      -0.22846300
Pt       5.61200000       6.48017000      14.58218000       0.03979700       0.00371100      -0.21362700
Pt       5.61200000       4.86013000      16.87326000      -0.36307200      -0.05351700       1.02145900
Pt       2.80600000       4.86013000      16.87326000       0.36430600      -0.09226400       0.99793600
Pt       4.20900000       2.43007000      16.87326000       0.04200800      -0.24295600       0.24879200
Pt       1.40300000       2.43007000      16.87326000      -0.04533000       0.31985700       0.67180600
Pt       2.80600000       0.00000000      16.87326000       0.01037000      -0.12063900       0.55503400
Pt       0.00000000       0.00000000      16.87326000      -0.00974900       0.46111600       0.36494200
Pt       0.00000000       0.00000000      10.00000000      -0.00283000      -0.02187000      -0.15525600
Pt       7.01499000       4.05011000      14.58218000      -0.00187300       0.39988300      -0.35359400
Pt       2.80600000       1.62004000      14.58218000       0.01775500      -0.11263100      -0.23423500
Pt       5.61200000       1.62004000      14.58218000      -0.01558100      -0.14288100      -0.26789700
Pt       7.01499000       5.67015000      12.29109000       0.00383000      -0.05249400       0.13172300
Pt       4.20900000       5.67015000      12.29109000      -0.00331500      -0.03751300       0.08116300
Pt       5.61200000       3.24009000      12.29109000      -0.06451400       0.01746200       0.12705000
Pt       2.80600000       3.24009000      12.29109000       0.05592100       0.02594300       0.11522000
Pt       4.20900000       0.81002000      12.29109000       0.02164500       0.01612700       0.06480200
Pt       1.40300000       0.81002000      12.29109000      -0.01986200      -0.02919000       0.08945300
Pt       5.61200000       4.86013000      10.00000000       0.00019600       0.00857200      -0.24925400
Pt       2.80600000       4.86013000      10.00000000       0.00418100      -0.00775000      -0.29025700
Pt       4.20900000       2.43007000      10.00000000      -0.00152700       0.00954200      -0.24258400
Pt       1.40300000       2.43007000      10.00000000       0.00327300       0.04865700      -0.07680400
Pt       2.80600000       0.00000000      10.00000000      -0.00117900      -0.02847800      -0.13437500
Pt       4.20900000       4.05011000      14.58218000       0.00578900      -0.07129000      -1.19397800
Pt       8.41799000       6.48017000      14.58218000      -0.04321300      -0.02379500      -0.21632100
34
Lattice="5.611995395 0.0 0.0 4.208996546 7.290195867 0.0 0.0 0.0 29.657262579" Properties=species:S:1:pos:R:3:forces:R:3 energy=-211.99637055 pbc="T T T"
C        5.61200000       2.43007000      18.49926000       0.01025600       0.91022200      -2.68378200
C        4.20900000       5.67015000      18.27026000      -0.11987300      -3.70437900      -2.78716800
C        4.20900000       0.00000000      18.49926000      -0.20164900       3.77008800      -1.56974500
C        1.40300000       0.00000000      18.49926000       0.20515200       3.78388000      -1.52442600
C        7.01499000       5.67015000      18.27026000       0.12112600      -3.67726400      -2.79022600
O        4.20900000       5.67015000      19.42826000       0.02264400      -3.52434600       2.69613900
O        7.01499000       5.67015000      19.42826000      -0.02089500      -3.54403700       2.69472800
O        5.61200000       2.43007000      19.65726000      -0.00604600       0.18723400       1.28355900
O        4.20900000       0.00000000      19.65726000      -0.04776900       2.58020400       0.50218800
O        1.40300000       0.00000000      19.65726000       0.04647300       2.58641000       0.49013600
Pt       5.61200000       6.48017000      14.58218000      -0.02933700       0.25292300      -0.69993400
Pt       5.61200000       4.86013000      16.87326000       0.00291400      -0.56804200       0.41350200
Pt       2.80600000       4.86013000      16.87326000       0.00066000      -0.82508400       0.66541500
Pt       4.20900000       2.43007000      16.87326000       0.45434900       0.30061700       0.98012900
Pt       1.40300000       2.43007000      16.87326000      -0.45847200       0.34461600       0.98611300
Pt       2.80600000       0.00000000      16.87326000      -0.03551700       0.81773700       1.95560600
Pt       0.00000000       0.00000000      16.87326000       0.03237500       0.24159400       1.60271300
Pt       0.00000000       0.00000000      10.00000000       0.00980200      -0.04288600      -0.19753500
Pt       7.01499000       4.05011000      14.58218000       0.01471400       0.10276600      -0.32844000
Pt       2.80600000       1.62004000      14.58218000      -0.01307100       0.12676200       0.04906700
Pt       5.61200000       1.62004000      14.58218000       0.00123800      -0.24072400      -0.64288800
Pt       7.01499000       5.67015000      12.29109000       0.01577000      -0.08805500       0.15571600
Pt       4.20900000       5.67015000      12.29109000      -0.01670000      -0.04865200       0.13181900
Pt       5.61200000       3.24009000      12.29109000      -0.00206100      -0.02377100       0.08621300
Pt       2.80600000       3.24009000      12.29109000       0.00490100      -0.03577100       0.10127600
Pt       4.20900000       0.81002000      12.29109000       0.02953000       0.00708700       0.13266200
Pt       1.40300000       0.81002000      12.29109000      -0.03089500      -0.00637100       0.14312800
Pt       5.61200000       4.86013000      10.00000000      -0.00484900      -0.03747100      -0.20355300
Pt       2.80600000       4.86013000      10.00000000       0.00416300      -0.00350200      -0.21679900
Pt       4.20900000       2.43007000      10.00000000       0.00272600      -0.00221500      -0.14333100
Pt       1.40300000       2.43007000      10.00000000      -0.00003600       0.00330300      -0.12506400
Pt       2.80600000       0.00000000      10.00000000      -0.00590700       0.01705700      -0.10084800
Pt       4.20900000       4.05011000      14.58218000      -0.01168800       0.05978500      -0.34766800
Pt       8.41799000       6.48017000      14.58218000       0.02597000       0.28028400      -0.70870300
34
Lattice="5.611995395 0.0 0.0 4.208996546 7.290195867 0.0 0.0 0.0 29.657262579" Properties=species:S:1:pos:R:3:forces:R:3 energy=-215.03756992 pbc="T T T"
C        1.40300000       0.81002000      18.27026000       1.12179700      -2.26506200      -2.77911700
C        4.20900000       4.86013000      18.49926000       2.15346500       2.09716900      -2.21313000
C        5.61200000       2.43007000      18.49926000      -1.70613900       1.92162500      -1.75979800
C        4.20900000       0.00000000      18.49926000      -0.51857300      -0.25361400      -2.24167200
C        2.80600000       3.24009000      18.27026000      -0.85025600      -0.92964800      -2.91412500
O        4.20900000       4.86013000      19.65726000       1.14994700       1.41403700       0.96836400
O        2.80600000       3.24009000      19.42826000      -1.63401200      -1.76454300       2.70145900
O        1.40300000       0.81002000      19.42826000       1.58466400      -1.83317100       2.64428200
O        5.61200000       2.43007000      19.65726000      -1.03060500       1.40429100       0.72032400
O        4.20900000       0.00000000      19.65726000      -0.07749300       0.02414800       1.01938000
Pt       5.61200000       6.48017000      14.58218000       0.02977000       0.23478500      -0.25315300
Pt       5.61200000       4.86013000      16.87326000      -0.72339000       0.15285400       1.06337500
Pt       2.80600000       4.86013000      16.87326000       0.24303900       0.00787200       1.06659500
Pt       4.20900000       2.43007000      16.87326000       0.67587800      -0.16458700       1.08777000
Pt       1.40300000       2.43007000      16.87326000      -0.45604000       0.46302100       1.30651300
Pt       2.80600000       0.00000000      16.87326000       0.48246300      -0.40634100       1.55093500
Pt       0.00000000       0.00000000      16.87326000      -0.47059000      -0.40097800       0.98238400
Pt       0.00000000       0.00000000      10.00000000      -0.00610700      -0.00363300      -0.15401100
Pt       7.01499000       4.05011000      14.58218000      -0.02925200       0.24897600      -0.08889100
Pt       2.80600000       1.62004000      14.58218000       0.06003400       0.24625700      -0.50021600
Pt       5.61200000       1.62004000      14.58218000      -0.05646100       0.14556200      -0.73376600
Pt       7.01499000       5.67015000      12.29109000       0.01740800       0.00376000       0.11449600
Pt       4.20900000       5.67015000      12.29109000      -0.03221100      -0.03970400       0.08034000
Pt       5.61200000       3.24009000      12.29109000      -0.04670700      -0.03548300       0.13082900
Pt       2.80600000       3.24009000      12.29109000       0.07234000       0.02448900       0.12813500
Pt       4.20900000       0.81002000      12.29109000      -0.02755600      -0.01842300       0.09905800
Pt       1.40300000       0.81002000      12.29109000       0.02885900      -0.08137200       0.11196100
Pt       5.61200000       4.86013000      10.00000000       0.01279100      -0.02847400      -0.13919500
Pt       2.80600000       4.86013000      10.00000000      -0.01364300      -0.00357500      -0.20144400
Pt       4.20900000       2.43007000      10.00000000       0.02401800       0.00158100      -0.21958200
Pt       1.40300000       2.43007000      10.00000000      -0.00611500       0.00453000      -0.07706600
Pt       2.80600000       0.00000000      10.00000000       0.01697900      -0.00907300      -0.17522800
Pt       4.20900000       4.05011000      14.58218000       0.02935500      -0.05315000      -0.97843400
Pt       8.41799000       6.48017000      14.58218000      -0.01765600      -0.10412600      -0.34737100
34
Lattice="5.611995395 0.0 0.0 4.208996546 7.290195867 0.0 0.0 0.0 29.657262579" Properties=species:S:1:pos:R:3:forces:R:3 energy=-215.09065281 pbc="T T T"
C        7.01499000       5.67015000      18.27026000       0.54154100      -1.75645600      -2.67231100
C        2.80600000       3.24009000      18.27026000      -1.42682100      -2.08964900      -3.00513900
C        4.20900000       4.86013000      18.49926000       1.97815000       1.29985200      -1.79442500
C        4.20900000       0.81002000      18.27026000       0.66149700       0.45398200      -2.73629600
C        1.40300000       0.00000000      18.49926000      -1.92440200       2.28937500      -1.73961800
O        2.80600000       3.24009000      19.42826000      -1.68563900      -1.80702400       2.74236800
O        1.40300000       0.00000000      19.65726000      -1.07063600       1.51161000       0.70162700
O        7.01499000       5.67015000      19.42826000       1.61081300      -1.75425600       2.50936600
O        4.20900000       4.86013000      19.65726000       1.05514400       1.34921600       0.75663600
O        4.20900000       0.81002000      19.42826000       0.04487200      -0.02279300       2.68466200
Pt       5.61200000       6.48017000      14.58218000      -0.03459000       0.15375400      -0.74310700
Pt       5.61200000       4.86013000      16.87326000      -0.63446900      -0.65477200       1.27212400
Pt       2.80600000       4.86013000      16.87326000       0.33495300       0.08466800       1.21930600
Pt       4.20900000       2.43007000      16.87326000       0.20932600      -0.23309100       0.52915600
Pt       1.40300000       2.43007000      16.87326000       0.11852900       0.35800400       0.46842500
Pt       2.80600000       0.00000000      16.87326000      -0.45004500       0.27283700       1.14825400
Pt       0.00000000       0.00000000      16.87326000       0.69871300       0.41710400       1.34923700
Pt       0.00000000       0.00000000      10.00000000       0.00952400       0.05689000      -0.09556600
Pt       7.01499000       4.05011000      14.58218000      -0.08538000       0.21022100      -0.41356400
Pt       2.80600000       1.62004000      14.58218000      -0.00783900      -0.19882000      -0.72084000
Pt       5.61200000       1.62004000      14.58218000       0.00842700       0.20798600      -0.39570900
Pt       7.01499000       5.67015000      12.29109000       0.00172000      -0.08329400       0.13510500
Pt       4.20900000       5.67015000      12.29109000      -0.01165800      -0.06497500       0.08331800
Pt       5.61200000       3.24009000      12.29109000      -0.01800500      -0.07260000       0.08923300
Pt       2.80600000       3.24009000      12.29109000       0.04064800       0.04196200       0.07892100
Pt       4.20900000       0.81002000      12.29109000      -0.02405900       0.05794700       0.12647400
Pt       1.40300000       0.81002000      12.29109000       0.00232800      -0.00001900       0.11639300
Pt       5.61200000       4.86013000      10.00000000      -0.00440800       0.02893000      -0.17345400
Pt       2.80600000       4.86013000      10.00000000      -0.00042500      -0.01862600      -0.16261100
Pt       4.20900000       2.43007000      10.00000000      -0.01521700      -0.00469800      -0.21229000
Pt       1.40300000       2.43007000      10.00000000       0.01128800      -0.04280500      -0.15935100
Pt       2.80600000       0.00000000      10.00000000      -0.01304500      -0.05984800      -0.14623900
Pt       4.20900000       4.05011000      14.58218000       0.05510000      -0.02474000      -0.47487000
Pt       8.41799000       6.48017000      14.58218000       0.02406500       0.09413000      -0.36521500
34
Lattice="5.611995395 0.0 0.0 4.208996546 7.290195867 0.0 0.0 0.0 29.428262579" Properties=species:S:1:pos:R:3:forces:R:3 energy=-217.07183039 pbc="T T T"
C        5.61200000       1.62004000      18.27026000      -0.17498900      -0.67176600      -2.12722600
C        2.80600000       1.62004000      18.27026000       0.17693400      -0.66090600      -2.15322200
C        5.61200000       6.48017000      18.27026000      -0.00617900       0.30523000      -2.30812300
C        7.01499000       4.05011000      18.27026000       0.47817500       0.49606200      -2.09086700
C        4.20900000       4.05011000      18.27026000      -0.47553600       0.52036600      -2.10219500
O        2.80600000       1.62004000      19.42826000       0.05944900      -0.06261200       2.36950300
O        4.20900000       4.05011000      19.42826000      -0.02671000       0.07730900       2.35846900
O        5.61200000       1.62004000      19.42826000      -0.05872500      -0.04549700       2.36808600
O        5.61200000       6.48017000      19.42826000       0.00244000      -0.03289600       2.45246700
O        7.01499000       4.05011000      19.42826000       0.02380400       0.06912000       2.36531500
Pt       5.61200000       6.48017000      14.58218000       0.00130000      -0.16226400      -0.82301000
Pt       5.61200000       4.86013000      16.87326000      -0.00992200       0.26469100       0.52450300
Pt       2.80600000       4.86013000      16.87326000       0.00782500       0.06238200       0.66618800
Pt       4.20900000       2.43007000      16.87326000      -0.03875100      -0.24729100       0.48282300
Pt       1.40300000       2.43007000      16.87326000       0.03033000      -0.04393800       0.41854200
Pt       2.80600000       0.00000000      16.87326000       0.04152100      -0.00590300       0.63696300
Pt       0.00000000       0.00000000      16.87326000      -0.03610000      -0.02018300       0.62690000
Pt       0.00000000       0.00000000      10.00000000      -0.00023200      -0.03916700      -0.18526500
Pt       7.01499000       4.05011000      14.58218000      -0.08158600      -0.00045500      -0.75247800
Pt       2.80600000       1.62004000      14.58218000       0.02853900       0.08578000      -0.77004400
Pt       5.61200000       1.62004000      14.58218000      -0.02655100       0.04297900      -0.77749300
Pt       7.01499000       5.67015000      12.29109000      -0.04331700       0.02920900       0.13068100
Pt       4.20900000       5.67015000      12.29109000       0.04316500       0.04623500       0.13895700
Pt       5.61200000       3.24009000      12.29109000       0.01889500      -0.02475100       0.08049500
Pt       2.80600000       3.24009000      12.29109000      -0.01993000      -0.09371300       0.11121300
Pt       4.20900000       0.81002000      12.29109000       0.00188900       0.00408100       0.09585600
Pt       1.40300000       0.81002000      12.29109000      -0.00184700       0.03461000       0.07068400
Pt       5.61200000       4.86013000      10.00000000      -0.00790500       0.00089500      -0.18424400
Pt       2.80600000       4.86013000      10.00000000       0.00830600       0.01782500      -0.10290800
Pt       4.20900000       2.43007000      10.00000000       0.00362900       0.01488600      -0.17586900
Pt       1.40300000       2.43007000      10.00000000      -0.00420900       0.01678400      -0.18048500
Pt       2.80600000       0.00000000      10.00000000       0.00506800      -0.00883600      -0.16406200
Pt       4.20900000       4.05011000      14.58218000       0.08233900       0.01630700      -0.76630200
Pt       8.41799000       6.48017000      14.58218000      -0.00112000       0.01542800      -0.23385300
34
Lattice="5.611995395 0.0 0.0 4.208996546 7.290195867 0.0 0.0 0.0 29.428262579" Properties=species:S:1:pos:R:3:forces:R:3 energy=-217.42926827 pbc="T T T"
C        1.40300000       0.81002000      18.27026000      -0.18249900       0.67434600      -2.24994300
C        4.20900000       5.67015000      18.27026000       0.48463500      -0.55286400      -2.20412400
C        4.20900000       0.81002000      18.27026000       0.18015500       0.71647500      -2.22763900
C        7.01499000       5.67015000      18.27026000      -0.48793000      -0.53340500      -2.20462900
C        2.80600000       3.24009000      18.27026000       0.01014500      -0.31159600      -2.41699400
O        4.20900000       5.67015000      19.42826000       0.02365100      -0.06563900       2.39000800
O        2.80600000       3.24009000      19.42826000      -0.00502400       0.03557200       2.49149000
O        1.40300000       0.81002000      19.42826000      -0.05825900       0.06055600       2.39742400
O        4.20900000       0.81002000      19.42826000       0.05548300       0.03370100       2.39595900
O        7.01499000       5.67015000      19.42826000      -0.02176500      -0.05482500       2.39596200
Pt       5.61200000       6.48017000      14.58218000       0.00718200       0.14883100      -0.77974100
Pt       5.61200000       4.86013000      16.87326000      -0.00541200      -0.15961700       0.59296700
Pt       2.80600000       4.86013000      16.87326000       0.00998600      -0.21706900       0.51002500
Pt       4.20900000       2.43007000      16.87326000       0.16338900       0.07358100       0.62248900
Pt       1.40300000       2.43007000      16.87326000      -0.16598500       0.05842300       0.63455600
Pt       2.80600000       0.00000000      16.87326000       0.01033500      -0.00804900       0.39809100
Pt       0.00000000       0.00000000      16.87326000       0.00117300       0.24264700       0.47472800
Pt       0.00000000       0.00000000      10.00000000      -0.00106000       0.06042200      -0.11033100
Pt       7.01499000       4.05011000      14.58218000      -0.04278700      -0.05627200      -0.42776100
Pt       2.80600000       1.62004000      14.58218000       0.00034100      -0.13387400      -0.88411800
Pt       5.61200000       1.62004000      14.58218000      -0.01109600       0.10525200      -0.38190000
Pt       7.01499000       5.67015000      12.29109000      -0.00621400      -0.02367600       0.06924500
Pt       4.20900000       5.67015000      12.29109000       0.00295800      -0.06488100       0.07630800
Pt       5.61200000       3.24009000      12.29109000      -0.02112100      -0.00654400       0.09346200
Pt       2.80600000       3.24009000      12.29109000       0.02456200       0.05117600       0.06911800
Pt       4.20900000       0.81002000      12.29109000      -0.01748300       0.04675300       0.09762200
Pt       1.40300000       0.81002000      12.29109000       0.02068600      -0.01547800       0.11904300
Pt       5.61200000       4.86013000      10.00000000       0.00991300       0.03478500      -0.16913600
Pt       2.80600000       4.86013000      10.00000000      -0.01140700      -0.00988200      -0.17013600
Pt       4.20900000       2.43007000      10.00000000       0.00199500      -0.01685600      -0.18029800
Pt       1.40300000       2.43007000      10.00000000      -0.00156100      -0.04187000      -0.15872800
Pt       2.80600000       0.00000000      10.00000000       0.00497800      -0.01936600      -0.20084400
Pt       4.20900000       4.05011000      14.58218000       0.04610400      -0.04958500      -0.40115300
Pt       8.41799000       6.48017000      14.58218000      -0.01807000      -0.00117100      -0.66102000
34
Lattice="5.611995395 0.0 0.0 4.208996546 7.290195867 0.0 0.0 0.0 29.886262579" Properties=species:S:1:pos:R:3:forces:R:3 energy=-216.6028177 pbc="T T T"