68
Lattice="8.417993093 0.0 0.0 5.611995395 9.720261156 0.0 0.0 0.0 29.657262579" Properties=species:S:1:pos:R:3:forces:R:3 energy=-428.13158032 pbc="T T T"
C        5.61200000       8.10022000      18.27026000      -1.26628000      -0.84088100      -2.68537600
C       11.22399000       7.29020000      18.49926000      -1.41533000       2.05730100      -1.79701700
C        1.40300000       0.00000000      18.49926000       3.30346900       0.47238800      -1.54098100
C        2.80600000       3.24009000      18.27026000       1.24830100      -2.47344500      -2.96588400
C        8.41799000       7.29020000      18.49926000       1.58073000       1.57149100      -1.71411100
C        7.01499000       5.67015000      18.27026000      -0.92442200      -2.41243800      -2.68297900
C        4.20900000       0.00000000      18.49926000       0.89450000       0.98506300      -2.46962200
C        9.82099000       4.86013000      18.49926000      -2.11368900       1.08527900      -1.74538100
C        8.41799000       1.62004000      18.27026000      -1.66850700       2.18571100      -2.80419800
C        4.20900000       5.67015000      18.27026000       1.39995100      -1.82695900      -2.61825400
O        7.01499000       5.67015000      19.42826000      -1.56678500      -1.83543600       2.59625200
O        4.20900000       5.67015000      19.42826000       1.53427400      -1.81037000       2.51586500
O       11.22399000       7.29020000      19.65726000      -0.98146700       1.38274400       0.69596500
O        5.61200000       8.10022000      19.42826000      -1.62689400      -1.64624900       2.60563800
O        4.20900000       0.00000000      19.65726000       0.04595800       0.15732400       1.10038800
O        8.41799000       1.62004000      19.42826000      -1.67292000       1.77736700       2.86344400
O        2.80600000       3.24009000      19.42826000       1.66780700      -1.86716700       2.83662400
O        8.41799000       7.29020000      19.65726000       1.03728500       1.32666500       0.65269400
O        9.82099000       4.86013000      19.65726000      -1.12261900       1.24221300       0.76162600
O        1.40300000       0.00000000      19.65726000       2.14498500       0.08931100       0.49248300
Pt       9.82099000       8.91024000      14.58218000      -0.18013600       0.06084800      -0.61981200
Pt       0.00000000       0.00000000      16.87326000      -0.12246000       0.14121100       0.96019200
Pt       2.80600000       0.00000000      16.87326000      -0.04708400       0.15517000       2.10443300
Pt       5.61200000       0.00000000      16.87326000      -0.70424600       0.51208700       1.01043600
Pt       1.40300000       2.43007000      16.87326000      -0.20979100      -0.01434300       0.25569400
Pt       4.20900000       2.43007000      16.87326000       0.13838600       0.28509400       0.49152700
Pt       2.80600000       4.86013000      16.87326000      -0.23373800      -0.29248200       0.85728400
Pt       5.61200000       4.86013000      16.87326000       0.07286000      -0.35647300       0.93433400
Pt       8.41799000       4.86013000      16.87326000       0.48693900      -0.73501800       1.22626000
Pt       4.20900000       7.29020000      16.87326000      -0.38439700       0.45660800       1.34152200
Pt       9.82099000       7.29020000      16.87326000       0.01884700      -0.14878000       1.96151200
Pt       7.01499000       8.91024000      14.58218000       0.14025400      -0.10553800      -0.60600600
Pt       7.01499000       2.43007000      16.87326000       0.03026700      -0.29698000       0.38750600
Pt       7.01499000       7.29020000      16.87326000       0.38178300      -0.15715000       0.92370700
Pt       0.00000000       0.00000000      10.00000000       0.04340400      -0.02171600      -0.09353200
Pt       5.61200000       6.48017000      14.58218000       0.03913000       0.29193700      -0.70595700
Pt       2.80600000       0.00000000      10.00000000      -0.03955000       0.02960800      -0.12046300
Pt       5.61200000       0.00000000      10.00000000      -0.02145400       0.01053600      -0.13034000
Pt       1.40300000       2.43007000      10.00000000       0.01225400       0.01980800      -0.20830800
Pt       4.20900000       2.43007000      10.00000000      -0.00584400       0.00098300      -0.19858000
Pt       7.01499000       2.43007000      10.00000000       0.00224700       0.01298100      -0.20443000
Pt       2.80600000       4.86013000      10.00000000       0.03494800      -0.02721500      -0.19384400
Pt       5.61200000       4.86013000      10.00000000      -0.00023200      -0.01211100      -0.17325000
Pt       8.41799000       4.86013000      10.00000000      -0.02881100      -0.00553700      -0.19636600
Pt       4.20900000       7.29020000      10.00000000       0.00634800      -0.04162400      -0.11637700
Pt       7.01499000       7.29020000      10.00000000       0.01054900      -0.02237300      -0.13697100
Pt       9.82099000       7.29020000      10.00000000      -0.00047100       0.00439400      -0.14978300
Pt       1.40300000       0.81002000      12.29109000      -0.02406700       0.08394100       0.17444500
Pt       4.20900000       0.81002000      12.29109000       0.01190500       0.01216600       0.12192500
Pt       7.01499000       0.81002000      12.29109000      -0.01643200       0.00166300       0.05267700
Pt       8.41799000       6.48017000      14.58218000      -0.00482300       0.19750700      -0.61655700
Pt       2.80600000       3.24009000      12.29109000      -0.04922800      -0.02739800       0.02005400
Pt       8.41799000       3.24009000      12.29109000      -0.00222200      -0.02349500       0.03031700
Pt       4.20900000       5.67015000      12.29109000      -0.07033100      -0.08832100       0.17406400
Pt       7.01499000       5.67015000      12.29109000       0.06560800      -0.04029600       0.16978700
Pt       9.82099000       5.67015000      12.29109000      -0.01486900      -0.05151200       0.02879800
Pt       5.61200000       8.10022000      12.29109000      -0.01364000       0.01233500       0.15910100
Pt       8.41799000       8.10022000      12.29109000       0.08436600       0.00735600       0.12642400
Pt      11.22399000       8.10022000      12.29109000      -0.01035200      -0.00531900       0.14518900
Pt       8.41799000       1.62004000      14.58218000       0.05396700      -0.04733700      -0.54181500
Pt       2.80600000       1.62004000      14.58218000       0.00731500      -0.07499800      -0.64995400
Pt       5.61200000       1.62004000      14.58218000      -0.04158200       0.18898700      -0.26203000
Pt       9.82099000       4.05011000      14.58218000      -0.01876100       0.08128400      -0.64813500
Pt       4.20900000       4.05011000      14.58218000       0.06561100       0.17528400      -0.48658200
Pt       7.01499000       4.05011000      14.58218000       0.00176200       0.12658900      -0.16839000
Pt      11.22399000       6.48017000      14.58218000      -0.04068600       0.04112900      -0.51953200
Pt       5.61200000       3.24009000      12.29109000       0.03858300      -0.11489700       0.12381200
Pt      12.62699000       8.91024000      14.58218000       0.03952800       0.18149500      -0.13116200
