30
Lattice="5.611995395 0.0 0.0 4.208996546 7.290195867 0.0 0.0 0.0 29.886262579" Properties=species:S:1:pos:R:3:forces:R:3 energy=-186.80532577 pbc="T T T"
C        2.80600000       0.00000000      18.72826000       0.00198900       1.05306900       0.47685000
C        5.61200000       2.43007000      18.49926000      -0.25713100      -0.35409700      -3.11943600
C        7.01499000       4.86013000      18.49926000       0.31155300      -0.66842200      -3.07732800
O        7.01499000       4.86013000      19.65726000       0.03230000      -0.72205100       1.45744700
O        2.80600000       0.00000000      19.88626000       0.00053500       0.73429300      -0.24932300
O        5.61200000       2.43007000      19.65726000      -0.05232200      -0.11939400       1.59182400
Pt       5.61200000       4.86013000      16.87326000       0.14948400       0.04370600       1.05011200
Pt       2.80600000       4.86013000      16.87326000      -0.25194700      -0.23891800       1.13622100
Pt       4.20900000       2.43007000      16.87326000       0.56984900       0.13586300       1.13003200
Pt       1.40300000       2.43007000      16.87326000      -0.54349700      -0.28251700       0.98651800
Pt       2.80600000       0.00000000      16.87326000       0.01478900       0.51985000       0.75201100
Pt       0.00000000       0.00000000      16.87326000      -0.00691000      -0.35055700      -0.34805000
Pt       5.61200000       6.48017000      14.58218000       0.06108500       0.11296400      -0.29359400
Pt       8.41799000       6.48017000      14.58218000      -0.06267600       0.12754600      -0.24902900
Pt       4.20900000       4.05011000      14.58218000      -0.04620200       0.26543800      -0.00366900
Pt       0.00000000       0.00000000      10.00000000       0.02842400      -0.02631600      -0.16424200
Pt       5.61200000       1.62004000      14.58218000       0.02517300      -0.10854600      -0.56511100
Pt       7.01499000       5.67015000      12.29109000       0.01111500       0.02030600       0.21367800
Pt       4.20900000       5.67015000      12.29109000      -0.01347600      -0.06808100       0.03403300
Pt       5.61200000       3.24009000      12.29109000       0.05718500      -0.01909600       0.12334600
Pt       2.80600000       3.24009000      12.29109000      -0.03422400      -0.00771900       0.07999000
Pt       4.20900000       0.81002000      12.29109000       0.05314800      -0.01433200       0.08976100
Pt       1.40300000       0.81002000      12.29109000      -0.06663400       0.02836000       0.07937300
Pt       5.61200000       4.86013000      10.00000000       0.03807700      -0.04211800      -0.11104900
Pt       2.80600000       4.86013000      10.00000000      -0.04075200       0.04476500      -0.15857200
Pt       4.20900000       2.43007000      10.00000000       0.01939200       0.05828100      -0.07342700
Pt       1.40300000       2.43007000      10.00000000       0.00570000      -0.03093900      -0.14043600
Pt       2.80600000       0.00000000      10.00000000      -0.03072600      -0.00415100      -0.07585500
Pt       2.80600000       1.62004000      14.58218000      -0.03229900       0.05704800       0.08576100
Pt       7.01499000       4.05011000      14.58218000       0.05899800      -0.14423800      -0.65783700
30
Lattice="5.611995395 0.0 0.0 4.208996546 7.290195867 0.0 0.0 0.0 29.657262579" Properties=species:S:1:pos:R:3:forces:R:3 energy=-185.90328296 pbc="T T T"
C        4.20900000       0.00000000      18.49926000       1.84377600       1.68929500      -2.34988500
C        7.01499000       5.67015000      18.27026000      -1.25524800      -1.86343700      -3.32599900
C        5.61200000       2.43007000      18.49926000       0.26993100       0.47471700      -2.77559600
O        5.61200000       2.43007000      19.65726000       0.05250100       0.07975100       1.31001400
O        4.20900000       0.00000000      19.65726000       1.10746500       1.29822400       1.00352500
O        7.01499000       5.67015000      19.42826000      -1.66850000      -1.87323500       2.95027200
Pt       5.61200000       4.86013000      16.87326000      -0.09986800       0.24042400       0.52613100
Pt       2.80600000       4.86013000      16.87326000       0.13402600      -0.46988300       0.41840700
Pt       4.20900000       2.43007000      16.87326000       0.31561900       0.45200100       1.02105800
Pt       1.40300000       2.43007000      16.87326000      -0.39345000      -0.20699300       1.11777500
Pt       2.80600000       0.00000000      16.87326000       0.15707000       0.37958900       1.35305700
Pt       0.00000000       0.00000000      16.87326000      -0.56163000      -0.34971600       1.09454700
Pt       5.61200000       6.48017000      14.58218000      -0.09102900       0.28710600      -0.09997400
Pt       8.41799000       6.48017000      14.58218000       0.11066900      -0.07519200      -0.85587200
Pt       4.20900000       4.05011000      14.58218000      -0.05547300       0.12417600      -0.18331800
Pt       0.00000000       0.00000000      10.00000000       0.01487000      -0.01419300      -0.15911800
Pt       5.61200000       1.62004000      14.58218000       0.04010600      -0.07553600      -0.67382700
Pt       7.01499000       5.67015000      12.29109000       0.07940900      -0.01477500       0.08517500
Pt       4.20900000       5.67015000      12.29109000      -0.06771900      -0.06055800       0.05416500
Pt       5.61200000       3.24009000      12.29109000       0.04016200       0.01274200       0.06296600
Pt       2.80600000       3.24009000      12.29109000      -0.04528100       0.06003300       0.06018400
Pt       4.20900000       0.81002000      12.29109000       0.04307100      -0.02619400       0.10980500
Pt       1.40300000       0.81002000      12.29109000      -0.02713100      -0.06839600       0.14913300
Pt       5.61200000       4.86013000      10.00000000       0.00703300       0.00005600      -0.05235100
Pt       2.80600000       4.86013000      10.00000000       0.01027800       0.01723800      -0.19886800
Pt       4.20900000       2.43007000      10.00000000       0.00939900       0.00042500      -0.04119400
Pt       1.40300000       2.43007000      10.00000000       0.00033000      -0.04712400      -0.10435000
Pt       2.80600000       0.00000000      10.00000000       0.00086000       0.01863000      -0.07306400
Pt       2.80600000       1.62004000      14.58218000      -0.04929400       0.10387000       0.14620500
Pt       7.01499000       4.05011000      14.58218000       0.07804700      -0.09304500      -0.56900500
30
Lattice="5.611995395 0.0 0.0 4.208996546 7.290195867 0.0 0.0 0.0 29.886262579" Properties=species:S:1:pos:R:3:forces:R:3 energy=-187.33175106 pbc="T T T"
C        2.80600000       4.86013000      18.72826000      -0.00106000       0.17764600       0.44799100
C        5.61200000       1.62004000      18.27026000      -0.01647400      -0.14059300      -2.96590200
C        2.80600000       1.62004000      18.27026000       0.01771700      -0.30971600      -3.06964700
O        2.80600000       1.62004000      19.42826000      -0.00219300      -0.04161100       2.88858400
O        2.80600000       4.86013000      19.88626000      -0.00002100      -0.01454900      -0.25020200
O        5.61200000       1.62004000      19.42826000       0.00161500      -0.04511200       2.84320700
Pt       5.61200000       4.86013000      16.87326000      -0.00993200       0.37562600      -0.45666700
Pt       2.80600000       4.86013000      16.87326000       0.01539700       0.30250200       0.76408300
Pt       4.20900000       2.43007000      16.87326000       0.15087100      -0.04362600       0.66734500
Pt       1.40300000       2.43007000      16.87326000      -0.15064600      -0.10592600       0.68337400
Pt       2.80600000       0.00000000      16.87326000      -0.22343700      -0.02980500       0.38847700
Pt       0.00000000       0.00000000      16.87326000       0.22234700       0.01518300       0.40030600
Pt       5.61200000       6.48017000      14.58218000       0.00060500      -0.02998500      -0.20602600
Pt       8.41799000       6.48017000      14.58218000       0.00370700      -0.17384400      -0.28002100
Pt       4.20900000       4.05011000      14.58218000      -0.09977700       0.02729300      -0.13628100
Pt       0.00000000       0.00000000      10.00000000       0.00255000       0.07184500      -0.13933100
Pt       5.61200000       1.62004000      14.58218000      -0.01259800       0.05089900      -0.73658400
Pt       7.01499000       5.67015000      12.29109000       0.00991600       0.06941900       0.04269600
Pt       4.20900000       5.67015000      12.29109000      -0.01731300       0.05974600       0.06757300
Pt       5.61200000       3.24009000      12.29109000      -0.01077300      -0.11326900       0.07741400
Pt       2.80600000       3.24009000      12.29109000       0.00675500      -0.05749700       0.26913600
Pt       4.20900000       0.81002000      12.29109000       0.00573100       0.00854900       0.01951300
Pt       1.40300000       0.81002000      12.29109000       0.00552800      -0.05648100       0.09234100
Pt       5.61200000       4.86013000      10.00000000       0.01167400      -0.03918700      -0.05876200
Pt       2.80600000       4.86013000      10.00000000      -0.01409700      -0.04163600      -0.10606400
Pt       4.20900000       2.43007000      10.00000000      -0.04312800       0.04345000      -0.20299100
Pt       1.40300000       2.43007000      10.00000000       0.03818000      -0.01174400      -0.14448200
Pt       2.80600000       0.00000000      10.00000000       0.00172500       0.01791400      -0.08685800
Pt       2.80600000       1.62004000      14.58218000       0.00696900      -0.00188100      -0.67266500
Pt       7.01499000       4.05011000      14.58218000       0.10015900       0.03638800      -0.13955700
30
Lattice="5.611995395 0.0 0.0 4.208996546 7.290195867 0.0 0.0 0.0 29.886262579" Properties=species:S:1:pos:R:3:forces:R:3 energy=-186.67363888 pbc="T T T"
C        1.40300000       0.00000000      18.49926000       0.01350400      -1.18954600      -3.33757900
C        1.40300000       2.43007000      18.72826000       0.00408700       1.17446300       0.34174300
C        4.20900000       2.43007000      18.72826000      -0.00337800       0.09000600       0.05384500
O        4.20900000       2.43007000      19.88626000       0.00021100      -0.02811100       0.02444000
O        1.40300000       0.00000000      19.65726000      -0.00488300      -0.80371900       1.71003600
O        1.40300000       2.43007000      19.88626000      -0.00041700       0.68950300      -0.10494300
Pt       5.61200000       4.86013000      16.87326000       0.00226000       0.23054600      -0.25201300
Pt       2.80600000       4.86013000      16.87326000      -0.00712600       0.59857900      -0.26585300
Pt       4.20900000       2.43007000      16.87326000       0.00544800       0.19432000       0.71876000
Pt       1.40300000       2.43007000      16.87326000       0.00031700       0.66904700       0.52622800
Pt       2.80600000       0.00000000      16.87326000      -0.34718100      -0.81026300       1.10244500
Pt       0.00000000       0.00000000      16.87326000       0.33460700      -0.83830000       1.09800200
Pt       5.61200000       6.48017000      14.58218000       0.01398300      -0.16797700      -0.65685700
Pt       8.41799000       6.48017000      14.58218000      -0.01841800       0.16716700       0.09533700
Pt       4.20900000       4.05011000      14.58218000       0.02655600      -0.15495700      -0.12096000
Pt       0.00000000       0.00000000      10.00000000       0.01119000       0.01917900      -0.21655500
Pt       5.61200000       1.62004000      14.58218000      -0.01835400       0.18027600      -0.35178000
Pt       7.01499000       5.67015000      12.29109000      -0.06375600       0.07292400       0.01917400
Pt       4.20900000       5.67015000      12.29109000       0.06132000       0.08170200       0.00817300
Pt       5.61200000       3.24009000      12.29109000      -0.01089600       0.06414000       0.21682400
Pt       2.80600000       3.24009000      12.29109000       0.00958600       0.02485600       0.19416900
Pt       4.20900000       0.81002000      12.29109000       0.00623500      -0.16905000       0.12172600
Pt       1.40300000       0.81002000      12.29109000      -0.00243900      -0.11592900       0.05954600
Pt       5.61200000       4.86013000      10.00000000       0.00638800      -0.01481500      -0.16115900
Pt       2.80600000       4.86013000      10.00000000       0.00402200       0.03300400      -0.04524000
Pt       4.20900000       2.43007000      10.00000000       0.01642200      -0.02293900      -0.08034600
Pt       1.40300000       2.43007000      10.00000000      -0.02033600      -0.03148300      -0.06060600
Pt       2.80600000       0.00000000      10.00000000      -0.01069700       0.02102300      -0.18364700
Pt       2.80600000       1.62004000      14.58218000       0.02000700       0.19223800      -0.33019400
Pt       7.01499000       4.05011000      14.58218000      -0.02825900      -0.15588300      -0.12271700
30
Lattice="5.611995395 0.0 0.0 4.208996546 7.290195867 0.0 0.0 0.0 29.886262579" Properties=species:S:1:pos:R:3:forces:R:3 energy=-186.13249797 pbc="T T T"
C        4.20900000       4.05011000      18.27026000      -1.36887400       1.97516100      -3.37176100
C        2.80600000       0.00000000      18.72826000      -0.01613900      -0.11638700       0.28860000
C        5.61200000       2.43007000      18.49926000       2.16383600      -1.98806200      -2.64430800
O        5.61200000       2.43007000      19.65726000       1.14572500      -1.44864800       1.28258200
O        4.20900000       4.05011000      19.42826000      -1.65177100       1.85649300       3.04894500
O        2.80600000       0.00000000      19.88626000       0.00394300       0.03386300      -0.17428900
Pt       5.61200000       4.86013000      16.87326000      -0.14324600       0.17345700       0.34932900
Pt       2.80600000       4.86013000      16.87326000       0.24648100      -0.12845600       0.42381300
Pt       4.20900000       2.43007000      16.87326000       0.32959400      -0.19134800       1.20159600
Pt       1.40300000       2.43007000      16.87326000      -0.76883700       0.01019800       1.11583900
Pt       2.80600000       0.00000000      16.87326000      -0.03386300      -0.11280500       0.88307300
Pt       0.00000000       0.00000000      16.87326000       0.02485600      -0.23932000      -0.39285400
Pt       5.61200000       6.48017000      14.58218000       0.09492600       0.07968200      -0.22983000
Pt       8.41799000       6.48017000      14.58218000      -0.10299600       0.01188200      -0.20262400
Pt       4.20900000       4.05011000      14.58218000      -0.01528900       0.00885100      -0.78124700
Pt       0.00000000       0.00000000      10.00000000       0.02076700      -0.04593400      -0.16709500
Pt       5.61200000       1.62004000      14.58218000      -0.04016000      -0.08546100      -0.58332100
Pt       7.01499000       5.67015000      12.29109000       0.02561000       0.00855700       0.22867000
Pt       4.20900000       5.67015000      12.29109000      -0.03582200       0.02569200      -0.02809400
Pt       5.61200000       3.24009000      12.29109000      -0.03581900      -0.03623100       0.17265300
Pt       2.80600000       3.24009000      12.29109000       0.02766300       0.03078600       0.10791600
Pt       4.20900000       0.81002000      12.29109000       0.06846000       0.02810400       0.08892300
Pt       1.40300000       0.81002000      12.29109000      -0.02060500      -0.04043800       0.04557200
Pt       5.61200000       4.86013000      10.00000000       0.02721500      -0.04156500      -0.11142900
Pt       2.80600000       4.86013000      10.00000000      -0.02910300       0.03804200      -0.20030100
Pt       4.20900000       2.43007000      10.00000000       0.00619800       0.03444900      -0.13381100
Pt       1.40300000       2.43007000      10.00000000      -0.01264300       0.01060800      -0.02790000
Pt       2.80600000       0.00000000      10.00000000      -0.00312200       0.00896400      -0.09265400
Pt       2.80600000       1.62004000      14.58218000       0.06226200       0.07373200       0.15509800
Pt       7.01499000       4.05011000      14.58218000       0.03075600       0.06613400      -0.25109200
30
Lattice="5.611995395 0.0 0.0 4.208996546 7.290195867 0.0 0.0 0.0 29.657262579" Properties=species:S:1:pos:R:3:forces:R:3 energy=-184.565781 pbc="T T T"
C        4.20900000       4.05011000      18.27026000      -1.37407700       1.98569300      -3.17230900
C        1.40300000       0.81002000      18.27026000       1.35686700      -1.98009000      -3.22907900
C        5.61200000       2.43007000      18.49926000       0.03143400       0.06357300      -1.76641500
O        5.61200000       2.43007000      19.65726000      -0.00673800      -0.01971600       0.62660200
O        4.20900000       4.05011000      19.42826000      -1.66581200       1.89681900       2.81920900
O        1.40300000       0.81002000      19.42826000       1.67718200      -1.89426400       2.86748200
Pt       5.61200000       4.86013000      16.87326000       0.02080800       0.29821100       0.40878800
Pt       2.80600000       4.86013000      16.87326000       0.02459400       0.26693500       0.49034900
Pt       4.20900000       2.43007000      16.87326000       0.35613900      -0.35488700       1.35780200
Pt       1.40300000       2.43007000      16.87326000      -0.35823600       0.30790300       1.36405100
Pt       2.80600000       0.00000000      16.87326000       0.04439300      -0.26624600       0.55293300
Pt       0.00000000       0.00000000      16.87326000      -0.11938100      -0.43308700       0.33730100
Pt       5.61200000       6.48017000      14.58218000      -0.00802100      -0.08736800      -0.52348700
Pt       8.41799000       6.48017000      14.58218000       0.00941200       0.06840200      -0.11155500
Pt       4.20900000       4.05011000      14.58218000      -0.00408100       0.00005800      -0.77288500
Pt       0.00000000       0.00000000      10.00000000       0.00483500      -0.03159700      -0.19132200
Pt       5.61200000       1.62004000      14.58218000      -0.13223900      -0.05933500      -0.92197000
Pt       7.01499000       5.67015000      12.29109000      -0.02831500       0.03689500       0.07122000
Pt       4.20900000       5.67015000      12.29109000       0.02681400       0.09916700       0.02824700
Pt       5.61200000       3.24009000      12.29109000      -0.03057000      -0.02667800       0.16281900
Pt       2.80600000       3.24009000      12.29109000       0.02518900      -0.06008600       0.14076600
Pt       4.20900000       0.81002000      12.29109000       0.03590100      -0.05601500       0.05450200
Pt       1.40300000       0.81002000      12.29109000      -0.01210300      -0.05547800       0.04338900
Pt       5.61200000       4.86013000      10.00000000      -0.01559500      -0.05292100      -0.10108300
Pt       2.80600000       4.86013000      10.00000000       0.01962700       0.00906400      -0.07760600
Pt       4.20900000       2.43007000      10.00000000       0.02490300       0.01481100      -0.13478200
Pt       1.40300000       2.43007000      10.00000000      -0.02777900       0.01079000      -0.06145700
Pt       2.80600000       0.00000000      10.00000000      -0.00171900       0.05221000      -0.06014000
Pt       2.80600000       1.62004000      14.58218000       0.11058600       0.31568200      -0.04862300
Pt       7.01499000       4.05011000      14.58218000       0.01598200      -0.04844400      -0.15274800
30
Lattice="5.611995395 0.0 0.0 4.208996546 7.290195867 0.0 0.0 0.0 29.657262579" Properties=species:S:1:pos:R:3:forces:R:3 energy=-187.4351591 pbc="T T T"
C        1.40300000       0.00000000      18.49926000       0.02155500       0.34976500      -2.43412300
C        5.61200000       3.24009000      18.27026000      -0.05678000       0.08395800      -3.32833200
C        8.41799000       6.48017000      18.27026000       0.00013000      -0.35574700      -3.02975600
O        8.41799000       6.48017000      19.42826000       0.00435800      -0.10778100       2.83382400
O        1.40300000       0.00000000      19.65726000      -0.00710700      -0.02960100       1.04049600
O        5.61200000       3.24009000      19.42826000       0.00257900      -0.01131900       3.06036400
Pt       5.61200000       4.86013000      16.87326000       0.01076300      -0.55262000       0.32663800
Pt       2.80600000       4.86013000      16.87326000      -0.01325400       0.07598000       0.48845500
Pt       4.20900000       2.43007000      16.87326000      -0.19299000       0.36439500       0.36405800
Pt       1.40300000       2.43007000      16.87326000       0.25097100       0.39386000       0.37067800
Pt       2.80600000       0.00000000      16.87326000      -0.46399900       0.07104100       1.46144100
Pt       0.00000000       0.00000000      16.87326000       0.45808300      -0.28513800       1.44733300
Pt       5.61200000       6.48017000      14.58218000      -0.00038500      -0.14252700      -0.53162300
Pt       8.41799000       6.48017000      14.58218000      -0.00401500       0.21439700      -0.34914700
Pt       4.20900000       4.05011000      14.58218000      -0.08737800       0.02881900      -0.49923700
Pt       0.00000000       0.00000000      10.00000000       0.00644900      -0.04308400      -0.12094000
Pt       5.61200000       1.62004000      14.58218000       0.00316500      -0.13776400      -0.52869700
Pt       7.01499000       5.67015000      12.29109000      -0.04987700      -0.08173000       0.06996900
Pt       4.20900000       5.67015000      12.29109000       0.05605700      -0.04435200       0.08383800
Pt       5.61200000       3.24009000      12.29109000       0.00720200       0.04853600       0.03334900
Pt       2.80600000       3.24009000      12.29109000      -0.01343800       0.02658100       0.10746800
Pt       4.20900000       0.81002000      12.29109000       0.04909800      -0.07118100       0.11131700
Pt       1.40300000       0.81002000      12.29109000      -0.06071900       0.02587900       0.08124100
Pt       5.61200000       4.86013000      10.00000000      -0.00935100       0.01285700      -0.18861200
Pt       2.80600000       4.86013000      10.00000000       0.00900800       0.03855800      -0.11385300
Pt       4.20900000       2.43007000      10.00000000      -0.00464600      -0.00547700      -0.06208100
Pt       1.40300000       2.43007000      10.00000000       0.00251200       0.02042500      -0.08079000
Pt       2.80600000       0.00000000      10.00000000      -0.00916100      -0.02314500      -0.04923500
Pt       2.80600000       1.62004000      14.58218000       0.00574400       0.10220900      -0.10620900
Pt       7.01499000       4.05011000      14.58218000       0.08542600       0.03420300      -0.45783400
30
Lattice="5.611995395 0.0 0.0 4.208996546 7.290195867 0.0 0.0 0.0 29.428262579" Properties=species:S:1:pos:R:3:forces:R:3 energy=-187.03854144 pbc="T T T"
C        2.80600000       3.24009000      18.27026000      -0.17930900      -0.44618100      -2.62951700
C        5.61200000       3.24009000      18.27026000       0.17921700      -0.43031500      -2.60990100
C        4.20900000       5.67015000      18.27026000      -0.00155300       0.95592300      -2.78403300
O        4.20900000       5.67015000      19.42826000      -0.00202800       0.21684600       2.73871400
O        2.80600000       3.24009000      19.42826000      -0.06276100      -0.06560200       2.60622700
O        5.61200000       3.24009000      19.42826000       0.06583700      -0.06947800       2.58693700
Pt       5.61200000       4.86013000      16.87326000       0.27446300       0.45669000       0.66497700
Pt       2.80600000       4.86013000      16.87326000      -0.27593200       0.43490300       0.67081600
Pt       4.20900000       2.43007000      16.87326000       0.02525200      -0.65751600       0.74360100
Pt       1.40300000       2.43007000      16.87326000      -0.02406900      -0.34821600       0.77439800
Pt       2.80600000       0.00000000      16.87326000      -0.00548400       0.03712300      -0.39023000
Pt       0.00000000       0.00000000      16.87326000       0.00808700      -0.11447200       0.43404000
Pt       5.61200000       6.48017000      14.58218000       0.07764100      -0.05234100      -0.26830000
Pt       8.41799000       6.48017000      14.58218000      -0.07598000      -0.08791600      -0.29296900
Pt       4.20900000       4.05011000      14.58218000       0.01535000       0.00474200      -1.00259500
Pt       0.00000000       0.00000000      10.00000000      -0.01907700      -0.00992600      -0.11364000
Pt       5.61200000       1.62004000      14.58218000      -0.00901500      -0.09270200      -0.23782600
Pt       7.01499000       5.67015000      12.29109000      -0.00000400       0.01137600       0.14242700
Pt       4.20900000       5.67015000      12.29109000      -0.00206600       0.02861700       0.24044800
Pt       5.61200000       3.24009000      12.29109000      -0.04803100      -0.02544100       0.04327600
Pt       2.80600000       3.24009000      12.29109000       0.05252800      -0.08334900       0.10655400
Pt       4.20900000       0.81002000      12.29109000       0.00746100       0.04632500      -0.03257600
Pt       1.40300000       0.81002000      12.29109000      -0.00695400       0.01727400      -0.03507700
Pt       5.61200000       4.86013000      10.00000000      -0.02519700       0.01645200      -0.14128500
Pt       2.80600000       4.86013000      10.00000000       0.02156700      -0.00853300      -0.12158300
Pt       4.20900000       2.43007000      10.00000000       0.00152600       0.00779600      -0.14554000
Pt       1.40300000       2.43007000      10.00000000       0.00140700       0.04991600      -0.09155900
Pt       2.80600000       0.00000000      10.00000000       0.01831800      -0.00347300      -0.11296200
Pt       2.80600000       1.62004000      14.58218000       0.00696600      -0.04052200      -0.24249900
Pt       7.01499000       4.05011000      14.58218000      -0.01816100       0.25200100      -0.50032400
30
Lattice="5.611995395 0.0 0.0 4.208996546 7.290195867 0.0 0.0 0.0 29.886262579" Properties=species:S:1:pos:R:3:forces:R:3 energy=-187.65584034 pbc="T T T"
C        5.61200000       4.86013000      18.72826000      -0.24247800       0.39435400       0.18916800
C        1.40300000       2.43007000      18.72826000       0.24803900      -0.26197400       0.24513700
C        4.20900000       0.81002000      18.27026000       0.01366700      -0.16260400      -3.82459200
O        4.20900000       0.81002000      19.42826000      -0.00056000       0.00920600       3.46874700
O        5.61200000       4.86013000      19.88626000      -0.06804500       0.12762700      -0.05155900
O        1.40300000       2.43007000      19.88626000       0.06726200      -0.12628200      -0.12112700
Pt       5.61200000       4.86013000      16.87326000      -0.20936200       0.40768500       0.75066200
Pt       2.80600000       4.86013000      16.87326000       0.17790100       0.01326700      -0.42923400
Pt       4.20900000       2.43007000      16.87326000      -0.20486100      -0.08475300       0.31306100
Pt       1.40300000       2.43007000      16.87326000       0.19538700      -0.03984500       0.69933900
Pt       2.80600000       0.00000000      16.87326000       0.17564000      -0.08901700       0.38713700
Pt       0.00000000       0.00000000      16.87326000      -0.16625800      -0.17345500       0.35728000
Pt       5.61200000       6.48017000      14.58218000      -0.00330100      -0.07439700      -0.08476900
Pt       8.41799000       6.48017000      14.58218000       0.00632500      -0.09709800      -0.50099400
Pt       4.20900000       4.05011000      14.58218000       0.10443800      -0.01191100      -0.06104600
Pt       0.00000000       0.00000000      10.00000000       0.03345100       0.00636000      -0.09583800
Pt       5.61200000       1.62004000      14.58218000       0.21531700       0.08667700      -0.42673000
Pt       7.01499000       5.67015000      12.29109000       0.04329200       0.07314700       0.03766900
Pt       4.20900000       5.67015000      12.29109000      -0.05202000       0.07138900       0.02919000
Pt       5.61200000       3.24009000      12.29109000       0.00868700      -0.00741800       0.23051200
Pt       2.80600000       3.24009000      12.29109000      -0.00912800      -0.06161100       0.07981900
Pt       4.20900000       0.81002000      12.29109000      -0.00377000      -0.07882100       0.06084700
Pt       1.40300000       0.81002000      12.29109000       0.02083400       0.01807800       0.08710600
Pt       5.61200000       4.86013000      10.00000000      -0.01012400      -0.02287800      -0.04151800
Pt       2.80600000       4.86013000      10.00000000       0.00728500      -0.02499900      -0.09179700
Pt       4.20900000       2.43007000      10.00000000       0.03686100      -0.03537100      -0.10482800
Pt       1.40300000       2.43007000      10.00000000      -0.03790600       0.01775400      -0.21179200
Pt       2.80600000       0.00000000      10.00000000      -0.03533300       0.08961400      -0.18525800
Pt       2.80600000       1.62004000      14.58218000      -0.19849500       0.12464600      -0.52015100
Pt       7.01499000       4.05011000      14.58218000      -0.11274400      -0.08737000      -0.18444100
30
Lattice="5.611995395 0.0 0.0 4.208996546 7.290195867 0.0 0.0 0.0 29.886262579" Properties=species:S:1:pos:R:3:forces:R:3 energy=-187.69703886 pbc="T T T"