12
Lattice="2.805997698 0.0 0.0 2.805997698 4.860130578 0.0 0.0 0.0 29.428262579" Properties=species:S:1:pos:R:3:forces:R:3 energy=-77.27552603 pbc="T T T"
C        2.80600000       3.24009000      18.27026000      -0.00000000      -0.00126500      -2.00894600
C        1.40300000       0.81002000      18.27026000      -0.00000000      -0.00126500      -2.00894600
O        2.80600000       3.24009000      19.42826000      -0.00000000       0.00222600       2.33781900
O        1.40300000       0.81002000      19.42826000      -0.00000000       0.00222600       2.33781900
Pt       0.00000000       0.00000000      10.00000000      -0.00000000      -0.02337000      -0.20211800
Pt       1.40300000       2.43007000      10.00000000      -0.00000000      -0.02337000      -0.20211800
Pt       1.40300000       0.81002000      12.29109000      -0.00000000       0.01148100       0.07680200
Pt       2.80600000       3.24009000      12.29109000      -0.00000000       0.01148100       0.07680200
Pt       2.80600000       1.62004000      14.58218000       0.00000000       0.01579000      -0.66418600
Pt       4.20900000       4.05011000      14.58218000       0.00000000       0.01579000      -0.66418600
Pt       0.00000000       0.00000000      16.87326000       0.00000000      -0.00486300       0.46062800
Pt       1.40300000       2.43007000      16.87326000       0.00000000      -0.00486300       0.46062800
12
Lattice="2.805997698 0.0 0.0 2.805997698 4.860130578 0.0 0.0 0.0 29.428262579" Properties=species:S:1:pos:R:3:forces:R:3 energy=-77.13443442 pbc="T T T"
C        4.20900000       4.05011000      18.27026000      -0.00000000      -0.01481000      -1.89057000
C        2.80600000       1.62004000      18.27026000      -0.00000000      -0.01481000      -1.89057000
O        4.20900000       4.05011000      19.42826000       0.00000000       0.00743300       2.30033100
O        2.80600000       1.62004000      19.42826000      -0.00000000       0.00743300       2.30033100
Pt       0.00000000       0.00000000      10.00000000      -0.00000000      -0.00902900      -0.20162100
Pt       1.40300000       2.43007000      10.00000000      -0.00000000      -0.00902900      -0.20162100
Pt       1.40300000       0.81002000      12.29109000      -0.00000000      -0.00273800       0.07236400
Pt       2.80600000       3.24009000      12.29109000      -0.00000000      -0.00273800       0.07236400
Pt       2.80600000       1.62004000      14.58218000       0.00000000       0.00704600      -0.77982800
Pt       4.20900000       4.05011000      14.58218000       0.00000000       0.00704600      -0.77982800
Pt       0.00000000       0.00000000      16.87326000       0.00000000       0.01209700       0.49932600
Pt       1.40300000       2.43007000      16.87326000       0.00000000       0.01209700       0.49932600
12
Lattice="2.805997698 0.0 0.0 2.805997698 4.860130578 0.0 0.0 0.0 29.886262579" Properties=species:S:1:pos:R:3:forces:R:3 energy=-76.89733268 pbc="T T T"
C        2.80600000       2.43007000      18.49926000       0.00000000       0.06949500      -3.09226100
C        0.00000000       0.00000000      18.72826000       0.00000000       0.04744800       0.55005900
O        2.80600000       2.43007000      19.65726000      -0.00000000      -0.00702300       1.33158900
O        0.00000000       0.00000000      19.88626000       0.00000000      -0.02254700      -0.06038300
Pt       0.00000000       0.00000000      10.00000000      -0.00000000       0.00109700      -0.22682100
Pt       1.40300000       2.43007000      10.00000000      -0.00000000      -0.02416300      -0.19050900
Pt       1.40300000       0.81002000      12.29109000      -0.00000000      -0.04481300       0.06345700
Pt       2.80600000       3.24009000      12.29109000      -0.00000000       0.03885700       0.14025500
Pt       2.80600000       1.62004000      14.58218000      -0.00000000       0.04142300      -0.32913700
Pt       4.20900000       4.05011000      14.58218000       0.00000000       0.21029100      -0.51552300
Pt       0.00000000       0.00000000      16.87326000      -0.00000000       0.02769100       0.25873800
Pt       1.40300000       2.43007000      16.87326000      -0.00000000      -0.33775400       2.07053800
12
Lattice="2.805997698 0.0 0.0 2.805997698 4.860130578 0.0 0.0 0.0 29.657262579" Properties=species:S:1:pos:R:3:forces:R:3 energy=-77.1333342 pbc="T T T"
C        1.40300000       0.00000000      18.49926000      -0.00000000       0.09270100      -2.44194800
C        2.80600000       2.43007000      18.49926000      -0.00000000       0.09270100      -2.44194800
O        1.40300000       0.00000000      19.65726000      -0.00000000      -0.02081700       1.06589300
O        2.80600000       2.43007000      19.65726000      -0.00000000      -0.02081700       1.06589300
Pt       0.00000000       0.00000000      10.00000000      -0.00000000      -0.01774400      -0.17369700
Pt       1.40300000       2.43007000      10.00000000      -0.00000000      -0.01774400      -0.17369700
Pt       1.40300000       0.81002000      12.29109000      -0.00000000      -0.01415600       0.11491200
Pt       2.80600000       3.24009000      12.29109000      -0.00000000      -0.01415600       0.11491200
Pt       2.80600000       1.62004000      14.58218000       0.00000000       0.26040000      -0.50316100
Pt       4.20900000       4.05011000      14.58218000       0.00000000       0.26040000      -0.50316100
Pt       0.00000000       0.00000000      16.87326000       0.00000000      -0.30038500       1.93800000
Pt       1.40300000       2.43007000      16.87326000       0.00000000      -0.30038500       1.93800000
12
Lattice="2.805997698 0.0 0.0 2.805997698 4.860130578 0.0 0.0 0.0 29.657262579" Properties=species:S:1:pos:R:3:forces:R:3 energy=-74.92135488 pbc="T T T"
C        2.80600000       3.24009000      18.27026000       0.00000000      -3.51569200      -2.76805200
C        1.40300000       0.00000000      18.49926000       0.00000000       3.99232100      -1.59409300
O        2.80600000       3.24009000      19.42826000      -0.00000000      -3.56729700       2.75103600
O        1.40300000       0.00000000      19.65726000      -0.00000000       2.68572200       0.53577500
Pt       0.00000000       0.00000000      10.00000000       0.00000000      -0.02444300      -0.23243800
Pt       1.40300000       2.43007000      10.00000000       0.00000000      -0.02404800      -0.13107000
Pt       1.40300000       0.81002000      12.29109000       0.00000000      -0.07642500       0.03973700
Pt       2.80600000       3.24009000      12.29109000       0.00000000       0.03518300       0.18189400
Pt       2.80600000       1.62004000      14.58218000       0.00000000      -0.09725300      -0.23807000
Pt       4.20900000       4.05011000      14.58218000       0.00000000       0.25549900      -0.78728100
Pt       0.00000000       0.00000000      16.87326000       0.00000000       0.56024000       1.86675400
Pt       1.40300000       2.43007000      16.87326000       0.00000000      -0.22380600       0.37580800
