20
Lattice="5.611995395 0.0 0.0 2.805997698 4.860130578 0.0 0.0 0.0 29.886262579" Properties=species:S:1:pos:R:3:forces:R:3 energy=-124.75113028 pbc="T T T"
C        0.00000000       0.00000000      18.72826000      -0.00000000      -0.00185400      -0.12872600
C        2.80600000       0.00000000      18.72826000      -0.00000000      -0.00185400      -0.12872600
O        2.80600000       0.00000000      19.88626000      -0.00000000      -0.00329400       0.14598700
O        0.00000000       0.00000000      19.88626000      -0.00000000      -0.00329400       0.14598700
Pt       4.20900000       2.43007000      16.87326000      -0.00000000      -0.00201100      -0.40299500
Pt       1.40300000       2.43007000      16.87326000      -0.00000000      -0.00201100      -0.40299500
Pt       2.80600000       0.00000000      16.87326000      -0.00000000       0.03552700       0.81253700
Pt       0.00000000       0.00000000      16.87326000      -0.00000000       0.03552700       0.81253700
Pt       4.20900000       4.05011000      14.58218000       0.00000000       0.12798300      -0.31741800
Pt       7.01499000       4.05011000      14.58218000       0.00000000       0.12798300      -0.31741800
Pt       0.00000000       0.00000000      10.00000000      -0.00000000       0.03376300      -0.14824200
Pt       5.61200000       3.24009000      12.29109000      -0.00000000      -0.01132100       0.00952800
Pt       2.80600000       3.24009000      12.29109000      -0.00000000      -0.01132100       0.00952800
Pt       4.20900000       0.81002000      12.29109000      -0.00000000       0.00847900       0.25879100
Pt       1.40300000       0.81002000      12.29109000      -0.00000000       0.00847900       0.25879100
Pt       4.20900000       2.43007000      10.00000000       0.00000000      -0.03233800      -0.12698600
Pt       1.40300000       2.43007000      10.00000000       0.00000000      -0.03233800      -0.12698600
Pt       2.80600000       0.00000000      10.00000000      -0.00000000       0.03376300      -0.14824200
Pt       5.61200000       1.62004000      14.58218000       0.00000000      -0.15493400      -0.10247600
Pt       2.80600000       1.62004000      14.58218000       0.00000000      -0.15493400      -0.10247600
20
Lattice="5.611995395 0.0 0.0 2.805997698 4.860130578 0.0 0.0 0.0 29.657262579" Properties=species:S:1:pos:R:3:forces:R:3 energy=-123.57630444 pbc="T T T"
C        5.61200000       2.43007000      18.49926000       2.10403600       2.07613800      -2.36851100
C        4.20900000       0.81002000      18.27026000      -1.25022700      -1.87081700      -3.27850800
O        4.20900000       0.81002000      19.42826000      -1.66137000      -1.86872500       2.93346000
O        5.61200000       2.43007000      19.65726000       1.15854200       1.39527600       1.03385400
Pt       4.20900000       2.43007000      16.87326000       0.09215700       0.48579300       1.29201900
Pt       1.40300000       2.43007000      16.87326000      -0.54739600      -0.15850000       1.14452300
Pt       2.80600000       0.00000000      16.87326000      -0.08244100       0.31353900       0.48468300
Pt       0.00000000       0.00000000      16.87326000       0.10888100      -0.39959900       0.37275200
Pt       4.20900000       4.05011000      14.58218000      -0.05711400      -0.01868300      -0.04136600
Pt       7.01499000       4.05011000      14.58218000       0.05826800      -0.08601700      -0.52094600
Pt       0.00000000       0.00000000      10.00000000       0.01658200      -0.03417600      -0.14292300
Pt       5.61200000       3.24009000      12.29109000       0.04468500      -0.03914800       0.10560500
Pt       2.80600000       3.24009000      12.29109000      -0.05233200      -0.04414400       0.11704600
Pt       4.20900000       0.81002000      12.29109000       0.06826500       0.01216500       0.06827500
Pt       1.40300000       0.81002000      12.29109000      -0.03182200       0.00199100       0.05370000
Pt       4.20900000       2.43007000      10.00000000       0.01171400       0.01378700      -0.08689300
Pt       1.40300000       2.43007000      10.00000000      -0.00328300       0.00140700      -0.15946700
Pt       2.80600000       0.00000000      10.00000000       0.00471900      -0.00284600      -0.04094200
Pt       5.61200000       1.62004000      14.58218000       0.11299500      -0.05939700      -0.85971000
Pt       2.80600000       1.62004000      14.58218000      -0.09485600       0.28195700      -0.10665200
20
Lattice="5.611995395 0.0 0.0 2.805997698 4.860130578 0.0 0.0 0.0 29.428262579" Properties=species:S:1:pos:R:3:forces:R:3 energy=-124.78516067 pbc="T T T"
C        5.61200000       1.62004000      18.27026000      -0.11553800       0.06670600      -2.73522800
C        7.01499000       4.05011000      18.27026000      -0.11553800       0.06670600      -2.73522800
O        7.01499000       4.05011000      19.42826000      -0.04919400       0.02840200       2.66909200
O        5.61200000       1.62004000      19.42826000      -0.04919400       0.02840200       2.66909200
Pt       4.20900000       2.43007000      16.87326000       0.02142300      -0.01236900       0.32295600
Pt       1.40300000       2.43007000      16.87326000       0.18847200      -0.10881400       0.70370600
Pt       2.80600000       0.00000000      16.87326000       0.02142300      -0.01236900       0.32295600
Pt       0.00000000       0.00000000      16.87326000       0.18847200      -0.10881400       0.70370600
Pt       4.20900000       4.05011000      14.58218000      -0.08389900       0.04843900      -0.21009900
Pt       7.01499000       4.05011000      14.58218000       0.07497300      -0.04328500      -0.70138700
Pt       0.00000000       0.00000000      10.00000000       0.02489600      -0.01437400      -0.15190700
Pt       5.61200000       3.24009000      12.29109000       0.00197100      -0.00113800       0.02850300
Pt       2.80600000       3.24009000      12.29109000      -0.04456800       0.02573100       0.18179700
Pt       4.20900000       0.81002000      12.29109000       0.00197100      -0.00113800       0.02850300
Pt       1.40300000       0.81002000      12.29109000      -0.04456800       0.02573100       0.18179700
Pt       4.20900000       2.43007000      10.00000000      -0.01853600       0.01070200      -0.10743300
Pt       1.40300000       2.43007000      10.00000000       0.02489600      -0.01437400      -0.15190700
Pt       2.80600000       0.00000000      10.00000000      -0.01853600       0.01070200      -0.10743300
Pt       5.61200000       1.62004000      14.58218000       0.07497300      -0.04328500      -0.70138700
Pt       2.80600000       1.62004000      14.58218000      -0.08389900       0.04843900      -0.21009900
20
Lattice="5.611995395 0.0 0.0 2.805997698 4.860130578 0.0 0.0 0.0 29.657262579" Properties=species:S:1:pos:R:3:forces:R:3 energy=-123.52883951 pbc="T T T"
C        4.20900000       4.05011000      18.27026000      -1.28677300       1.87192600      -3.21238700
C        5.61200000       2.43007000      18.49926000       2.10251000      -1.95771700      -2.36448500
O        5.61200000       2.43007000      19.65726000       1.16498800      -1.43104600       1.03214700
O        4.20900000       4.05011000      19.42826000      -1.65235800       1.87070600       2.88000900
Pt       4.20900000       2.43007000      16.87326000       0.10644200      -0.49800900       1.32642100
Pt       1.40300000       2.43007000      16.87326000      -0.55709000      -0.07136700       1.15394300
Pt       2.80600000       0.00000000      16.87326000       0.01310100       0.33802700       0.40417500
Pt       0.00000000       0.00000000      16.87326000       0.04338300      -0.33604200       0.42451100
Pt       4.20900000       4.05011000      14.58218000      -0.05712300       0.03743700      -0.77542800
Pt       7.01499000       4.05011000      14.58218000       0.05961100       0.09029900      -0.28024100
Pt       0.00000000       0.00000000      10.00000000      -0.00056900      -0.01774500      -0.16352400
Pt       5.61200000       3.24009000      12.29109000      -0.03461700       0.01665400       0.10655700
Pt       2.80600000       3.24009000      12.29109000       0.02690300       0.01732700       0.11650200
Pt       4.20900000       0.81002000      12.29109000       0.08038600      -0.02796700       0.11936800
Pt       1.40300000       0.81002000      12.29109000      -0.02334600       0.00080200       0.05650600
Pt       4.20900000       2.43007000      10.00000000      -0.00657300      -0.01325600      -0.10901000
Pt       1.40300000       2.43007000      10.00000000       0.01098400      -0.00188300      -0.08800500
Pt       2.80600000       0.00000000      10.00000000      -0.00001400       0.02146700      -0.07516500
Pt       5.61200000       1.62004000      14.58218000      -0.07582900      -0.12098100      -0.63712100
Pt       2.80600000       1.62004000      14.58218000       0.08598300       0.21136700       0.08522600
20
Lattice="5.611995395 0.0 0.0 2.805997698 4.860130578 0.0 0.0 0.0 29.886262579" Properties=species:S:1:pos:R:3:forces:R:3 energy=-124.47952974 pbc="T T T"
C        0.00000000       0.00000000      18.72826000       0.00000000       1.04514600       0.43160100
C        2.80600000       2.43007000      18.49926000      -0.00000000      -1.11094900      -3.34740900
O        2.80600000       2.43007000      19.65726000       0.00000000      -0.81380000       1.69231100
O        0.00000000       0.00000000      19.88626000      -0.00000000       0.73374400      -0.21168100
Pt       4.20900000       2.43007000      16.87326000      -0.40004700      -0.09727100       1.08019100
Pt       1.40300000       2.43007000      16.87326000       0.40004700      -0.09727100       1.08019100
Pt       2.80600000       0.00000000      16.87326000       0.00000000      -0.29367000      -0.36926700
Pt       0.00000000       0.00000000      16.87326000       0.00000000       0.53120400       0.74953300
Pt       4.20900000       4.05011000      14.58218000      -0.03837600       0.09194300      -0.29904400
Pt       7.01499000       4.05011000      14.58218000       0.03837600       0.09194300      -0.29904400
Pt       0.00000000       0.00000000      10.00000000       0.00000000       0.00769600      -0.09399500
Pt       5.61200000       3.24009000      12.29109000       0.00000000       0.00991700       0.03797000
Pt       2.80600000       3.24009000      12.29109000       0.00000000       0.00455400       0.30537500
Pt       4.20900000       0.81002000      12.29109000      -0.06673100      -0.02169900       0.05833400
Pt       1.40300000       0.81002000      12.29109000       0.06673100      -0.02169900       0.05833400
Pt       4.20900000       2.43007000      10.00000000      -0.01999900      -0.00999300      -0.11010400
Pt       1.40300000       2.43007000      10.00000000       0.01999900      -0.00999300      -0.11010400
Pt       2.80600000       0.00000000      10.00000000       0.00000000       0.01550500      -0.18357400
Pt       5.61200000       1.62004000      14.58218000       0.00000000       0.08079700       0.04829900
Pt       2.80600000       1.62004000      14.58218000       0.00000000      -0.13610300      -0.51791900
20
Lattice="5.611995395 0.0 0.0 2.805997698 4.860130578 0.0 0.0 0.0 29.428262579" Properties=species:S:1:pos:R:3:forces:R:3 energy=-124.86219973 pbc="T T T"
C        5.61200000       3.24009000      18.27026000       0.14728600      -0.08503600      -2.80689300
C        4.20900000       0.81002000      18.27026000       0.14728600      -0.08503600      -2.80689300
O        4.20900000       0.81002000      19.42826000       0.03719300      -0.02147400       2.70708100
O        5.61200000       3.24009000      19.42826000       0.03719300      -0.02147400       2.70708100
Pt       4.20900000       2.43007000      16.87326000      -0.33810500       0.19520500       0.70863200
Pt       1.40300000       2.43007000      16.87326000       0.09331500      -0.05387600       0.35812400
Pt       2.80600000       0.00000000      16.87326000      -0.33810500       0.19520500       0.70863200
Pt       0.00000000       0.00000000      16.87326000       0.09331500      -0.05387600       0.35812400
Pt       4.20900000       4.05011000      14.58218000      -0.07116000       0.04108400      -0.20196400
Pt       7.01499000       4.05011000      14.58218000       0.09529500      -0.05501800      -0.67842100
Pt       0.00000000       0.00000000      10.00000000       0.01182900      -0.00682900      -0.15923900
Pt       5.61200000       3.24009000      12.29109000       0.04499000      -0.02597500       0.12793100
Pt       2.80600000       3.24009000      12.29109000      -0.02848500       0.01644600       0.03042800
Pt       4.20900000       0.81002000      12.29109000       0.04499000      -0.02597500       0.12793100
Pt       1.40300000       0.81002000      12.29109000      -0.02848500       0.01644600       0.03042800
Pt       4.20900000       2.43007000      10.00000000       0.00784200      -0.00452800      -0.08568100
Pt       1.40300000       2.43007000      10.00000000       0.01182900      -0.00682900      -0.15923900
Pt       2.80600000       0.00000000      10.00000000       0.00784200      -0.00452800      -0.08568100
Pt       5.61200000       1.62004000      14.58218000       0.09529500      -0.05501800      -0.67842100
Pt       2.80600000       1.62004000      14.58218000      -0.07116000       0.04108400      -0.20196400
20
Lattice="5.611995395 0.0 0.0 2.805997698 4.860130578 0.0 0.0 0.0 29.886262579" Properties=species:S:1:pos:R:3:forces:R:3 energy=-125.21650793 pbc="T T T"
C        4.20900000       2.43007000      18.72826000      -0.00000000       0.00000000       0.47072000
C        1.40300000       0.81002000      18.27026000      -0.00000000       0.00000000      -3.79830800
O        1.40300000       0.81002000      19.42826000      -0.00000000       0.00000000       3.43535000
O        4.20900000       2.43007000      19.88626000      -0.00000000       0.00000000      -0.29323700
Pt       4.20900000       2.43007000      16.87326000      -0.00000000       0.00000000       0.73497500
Pt       1.40300000       2.43007000      16.87326000      -0.00000000       0.27535600       0.32009300
Pt       2.80600000       0.00000000      16.87326000       0.23846600      -0.13767800       0.32009300
Pt       0.00000000       0.00000000      16.87326000      -0.23846600      -0.13767800       0.32009300
Pt       4.20900000       4.05011000      14.58218000       0.00000000      -0.25141100      -0.48120500
Pt       7.01499000       4.05011000      14.58218000      -0.00000000       0.00000000       0.09462000
Pt       0.00000000       0.00000000      10.00000000      -0.01653500      -0.00954700      -0.10118700
Pt       5.61200000       3.24009000      12.29109000      -0.04539700      -0.02621000       0.12010400
Pt       2.80600000       3.24009000      12.29109000       0.04539700      -0.02621000       0.12010400
Pt       4.20900000       0.81002000      12.29109000      -0.00000000       0.05242000       0.12010400
Pt       1.40300000       0.81002000      12.29109000      -0.00000000       0.00000000      -0.01821900
Pt       4.20900000       2.43007000      10.00000000      -0.00000000      -0.00000000      -0.19931500
Pt       1.40300000       2.43007000      10.00000000      -0.00000000       0.01909300      -0.10118700
Pt       2.80600000       0.00000000      10.00000000       0.01653500      -0.00954700      -0.10118700
Pt       5.61200000       1.62004000      14.58218000      -0.21772800       0.12570500      -0.48120500
Pt       2.80600000       1.62004000      14.58218000       0.21772800       0.12570500      -0.48120500
20
Lattice="5.611995395 0.0 0.0 2.805997698 4.860130578 0.0 0.0 0.0 29.657262579" Properties=species:S:1:pos:R:3:forces:R:3 energy=-124.76627509 pbc="T T T"
C        2.80600000       3.24009000      18.27026000       0.00000000       0.37631400      -3.09569500
C        5.61200000       2.43007000      18.49926000       0.00000000      -0.25226900      -2.57703100
O        5.61200000       2.43007000      19.65726000       0.00000000       0.01603100       1.12872300
O        2.80600000       3.24009000      19.42826000       0.00000000       0.08186600       2.92519300
Pt       4.20900000       2.43007000      16.87326000       0.56586800      -0.29013400       1.59196500
Pt       1.40300000       2.43007000      16.87326000      -0.56586800      -0.29013400       1.59196500
Pt       2.80600000       0.00000000      16.87326000      -0.00000000       0.33202400      -0.43078400
Pt       0.00000000       0.00000000      16.87326000       0.00000000      -0.15860900       0.39347800
Pt       4.20900000       4.05011000      14.58218000       0.02766800       0.06635000      -0.51605500
Pt       7.01499000       4.05011000      14.58218000      -0.02766800       0.06635000      -0.51605500
Pt       0.00000000       0.00000000      10.00000000       0.00000000      -0.03120400      -0.14737500
Pt       5.61200000       3.24009000      12.29109000      -0.00000000       0.06283500       0.06056100
Pt       2.80600000       3.24009000      12.29109000       0.00000000      -0.00213000       0.33975400
Pt       4.20900000       0.81002000      12.29109000       0.00847000      -0.03283700       0.00532000
Pt       1.40300000       0.81002000      12.29109000      -0.00847000      -0.03283700       0.00532000
Pt       4.20900000       2.43007000      10.00000000      -0.01129200       0.01644700      -0.09530200
Pt       1.40300000       2.43007000      10.00000000       0.01129200       0.01644700      -0.09530200
Pt       2.80600000       0.00000000      10.00000000       0.00000000       0.00713300      -0.11260100
Pt       5.61200000       1.62004000      14.58218000      -0.00000000      -0.04046000      -0.34417500
Pt       2.80600000       1.62004000      14.58218000       0.00000000       0.08881700      -0.11190500
20
Lattice="5.611995395 0.0 0.0 2.805997698 4.860130578 0.0 0.0 0.0 29.657262579" Properties=species:S:1:pos:R:3:forces:R:3 energy=-124.73126504 pbc="T T T"
C        5.61200000       1.62004000      18.27026000       0.00000000      -0.35477900      -3.05116900
C        2.80600000       2.43007000      18.49926000      -0.00000000       0.37163900      -2.55169200
O        2.80600000       2.43007000      19.65726000      -0.00000000      -0.04782600       1.11976600
O        5.61200000       1.62004000      19.42826000      -0.00000000      -0.09123700       2.89672600
Pt       4.20900000       2.43007000      16.87326000      -0.43002200       0.00393100       1.59074200
Pt       1.40300000       2.43007000      16.87326000       0.43002200       0.00393100       1.59074200
Pt       2.80600000       0.00000000      16.87326000      -0.00000000      -0.25917900      -0.48697700
Pt       0.00000000       0.00000000      16.87326000      -0.00000000       0.33829700       0.39517800
Pt       4.20900000       4.05011000      14.58218000       0.00468100      -0.04584800      -0.26307900
Pt       7.01499000       4.05011000      14.58218000      -0.00468100      -0.04584800      -0.26307900
Pt       0.00000000       0.00000000      10.00000000       0.00000000      -0.00864900      -0.08286600
Pt       5.61200000       3.24009000      12.29109000      -0.00000000      -0.03505200       0.09983600
Pt       2.80600000       3.24009000      12.29109000      -0.00000000      -0.01636300       0.35101900
Pt       4.20900000       0.81002000      12.29109000      -0.04129400      -0.01860300      -0.00182400
Pt       1.40300000       0.81002000      12.29109000       0.04129400      -0.01860300      -0.00182400
Pt       4.20900000       2.43007000      10.00000000      -0.03646700       0.01691100      -0.12028000
Pt       1.40300000       2.43007000      10.00000000       0.03646700       0.01691100      -0.12028000
Pt       2.80600000       0.00000000      10.00000000      -0.00000000      -0.02361800      -0.12050800
Pt       5.61200000       1.62004000      14.58218000       0.00000000       0.21026300      -0.34775900
Pt       2.80600000       1.62004000      14.58218000      -0.00000000       0.00372400      -0.63267400
20
Lattice="5.611995395 0.0 0.0 2.805997698 4.860130578 0.0 0.0 0.0 29.657262579" Properties=species:S:1:pos:R:3:forces:R:3 energy=-124.64736351 pbc="T T T"
C        1.40300000       0.00000000      18.49926000      -0.02225900       0.07882100      -2.82729900
C        5.61200000       2.43007000      18.49926000      -0.02225900       0.07882100      -2.82729900
O        5.61200000       2.43007000      19.65726000       0.00828200      -0.02313400       1.32179400
O        1.40300000       0.00000000      19.65726000       0.00828200      -0.02313400       1.32179400
Pt       4.20900000       2.43007000      16.87326000       0.38640800      -0.45596700       1.08660500
Pt       1.40300000       2.43007000      16.87326000      -0.35121900       0.26827400       1.11859300
Pt       2.80600000       0.00000000      16.87326000      -0.35121900       0.26827400       1.11859300
Pt       0.00000000       0.00000000      16.87326000       0.38640800      -0.45596700       1.08660500
Pt       4.20900000       4.05011000      14.58218000      -0.06071900      -0.08867800      -0.70111400
Pt       7.01499000       4.05011000      14.58218000       0.05072800       0.25769900       0.01294900
Pt       0.00000000       0.00000000      10.00000000      -0.00473200      -0.01524800      -0.15278800
Pt       5.61200000       3.24009000      12.29109000      -0.05286200       0.00145600       0.08874200
Pt       2.80600000       3.24009000      12.29109000       0.05270100      -0.02983000       0.10557700
Pt       4.20900000       0.81002000      12.29109000       0.05270100      -0.02983000       0.10557700
Pt       1.40300000       0.81002000      12.29109000      -0.05286200       0.00145600       0.08874200
Pt       4.20900000       2.43007000      10.00000000      -0.00473200      -0.01524800      -0.15278800
Pt       1.40300000       2.43007000      10.00000000      -0.00632700       0.00660700      -0.05306000
Pt       2.80600000       0.00000000      10.00000000      -0.00632700       0.00660700      -0.05306000
Pt       5.61200000       1.62004000      14.58218000      -0.06071900      -0.08867800      -0.70111400
Pt       2.80600000       1.62004000      14.58218000       0.05072800       0.25769900       0.01294900
20
Lattice="5.611995395 0.0 0.0 2.805997698 4.860130578 0.0 0.0 0.0 29.657262579" Properties=species:S:1:pos:R:3:forces:R:3 energy=-124.35277602 pbc="T T T"
C        2.80600000       2.43007000      18.49926000       0.00000000       0.05765500      -2.93781300
C        5.61200000       2.43007000      18.49926000       0.00000000       0.05765500      -2.93781300
O        5.61200000       2.43007000      19.65726000      -0.00000000      -0.01556300       1.25330700
O        2.80600000       2.43007000      19.65726000      -0.00000000      -0.01556300       1.25330700
Pt       4.20900000       2.43007000      16.87326000      -0.00000000      -0.20929500       2.55661400
Pt       1.40300000       2.43007000      16.87326000      -0.00000000      -0.20929500       2.55661400
Pt       2.80600000       0.00000000      16.87326000      -0.00000000       0.06768400      -0.31381700
Pt       0.00000000       0.00000000      16.87326000      -0.00000000       0.06768400      -0.31381700
Pt       4.20900000       4.05011000      14.58218000      -0.00000000      -0.00754300      -0.33910900
Pt       7.01499000       4.05011000      14.58218000      -0.00000000      -0.00754300      -0.33910900
Pt       0.00000000       0.00000000      10.00000000      -0.00000000      -0.02454700      -0.12356000
Pt       5.61200000       3.24009000      12.29109000      -0.00000000       0.00247000       0.26136700
Pt       2.80600000       3.24009000      12.29109000      -0.00000000       0.00247000       0.26136700
Pt       4.20900000       0.81002000      12.29109000      -0.00000000      -0.03146100       0.01554200
Pt       1.40300000       0.81002000      12.29109000      -0.00000000      -0.03146100       0.01554200
Pt       4.20900000       2.43007000      10.00000000      -0.00000000       0.02156500      -0.10333700
Pt       1.40300000       2.43007000      10.00000000      -0.00000000       0.02156500      -0.10333700
Pt       2.80600000       0.00000000      10.00000000      -0.00000000      -0.02454700      -0.12356000
Pt       5.61200000       1.62004000      14.58218000       0.00000000       0.13903400      -0.26919300
Pt       2.80600000       1.62004000      14.58218000       0.00000000       0.13903400      -0.26919300
20
Lattice="5.611995395 0.0 0.0 2.805997698 4.860130578 0.0 0.0 0.0 29.428262579" Properties=species:S:1:pos:R:3:forces:R:3 energy=-125.00743027 pbc="T T T"
C        7.01499000       4.05011000      18.27026000      -0.00000000      -0.00000000      -2.52127000
C        1.40300000       0.81002000      18.27026000      -0.00000000      -0.00000000      -2.58743600
O        1.40300000       0.81002000      19.42826000      -0.00000000      -0.00000000       2.80464100
O        7.01499000       4.05011000      19.42826000      -0.00000000      -0.00000000       2.77577600
Pt       4.20900000       2.43007000      16.87326000      -0.00000000      -0.00000000      -0.64488900
Pt       1.40300000       2.43007000      16.87326000       0.00000000       0.13901600       0.62626600
Pt       2.80600000       0.00000000      16.87326000       0.12039200      -0.06950800       0.62626600
Pt       0.00000000       0.00000000      16.87326000      -0.12039200      -0.06950800       0.62626600
Pt       4.20900000       4.05011000      14.58218000      -0.00000000      -0.02158800      -0.41322300
Pt       7.01499000       4.05011000      14.58218000      -0.00000000      -0.00000000      -0.38720200
Pt       0.00000000       0.00000000      10.00000000       0.02936000       0.01695100      -0.13210300
Pt       5.61200000       3.24009000      12.29109000      -0.02465200      -0.01423300       0.00487200
Pt       2.80600000       3.24009000      12.29109000       0.02465200      -0.01423300       0.00487200
Pt       4.20900000       0.81002000      12.29109000      -0.00000000       0.02846500       0.00487200
Pt       1.40300000       0.81002000      12.29109000      -0.00000000      -0.00000000       0.42232400
Pt       4.20900000       2.43007000      10.00000000      -0.00000000      -0.00000000      -0.11938000
Pt       1.40300000       2.43007000      10.00000000      -0.00000000      -0.03390200      -0.13210300
Pt       2.80600000       0.00000000      10.00000000      -0.02936000       0.01695100      -0.13210300
Pt       5.61200000       1.62004000      14.58218000      -0.01869600       0.01079400      -0.41322300
Pt       2.80600000       1.62004000      14.58218000       0.01869600       0.01079400      -0.41322300
