20
Lattice="5.612 0.0 0.0 -2.806 4.860134566 0.0 0.0 0.0 25.5631" Properties=species:S:1:pos:R:3:forces:R:3 energy=-125.01381754 pbc="T T T"
C       -1.41179000       4.08931000      16.37728000       0.01830200      -0.01018600       0.03572400
C        2.79721000       1.65924000      16.37728000       0.01830200      -0.01018600       0.03572400
O        2.74858000       1.68602000      17.56310000       0.00047900       0.00748200      -0.02430800
O       -1.46042000       4.11608000      17.56310000       0.00047900       0.00748200      -0.02430800
Pt       4.18838000       0.86120000      10.32741000      -0.01239800      -0.00098000       0.00660300
Pt       2.84282000       1.64216000      12.59838000       0.03336100      -0.01796000      -0.00315700
Pt       0.11116000       4.83826000      15.06661000      -0.02092100      -0.00187900       0.02148700
Pt       1.32902000       2.50504000       8.01298000       0.00350200       0.00223000       0.00765900
Pt       2.78401000       3.28970000      10.30778000      -0.00255300       0.00833100      -0.02333800
Pt       1.42398000       4.08207000      12.63196000      -0.01597400       0.00207000       0.03762000
Pt       2.74145000       0.07130000       8.00000000       0.00516800      -0.00309100       0.00487700
Pt       0.02098000       1.65200000      12.63196000      -0.01597400       0.00207000       0.03762000
Pt       5.53802000       0.07497000       8.01298000       0.00350200       0.00223000       0.00765900
Pt      -2.71095000       4.84686000      14.94017000      -0.00896600       0.01398400      -0.06316700
Pt       4.14445000       2.50137000       8.00000000       0.00516800      -0.00309100       0.00487700
Pt      -0.02062000       3.29127000      10.32741000      -0.01239800      -0.00098000       0.00660300
Pt      -1.36618000       4.07223000      12.59838000       0.03336100      -0.01796000      -0.00315700
Pt      -1.29184000       2.40819000      15.06661000      -0.02092100      -0.00187900       0.02148700
Pt       1.38101000       0.85963000      10.30778000      -0.00255300       0.00833100      -0.02333800
Pt       1.49805000       2.41679000      14.94017000      -0.00896600       0.01398400      -0.06316700
20
Lattice="5.612 0.0 0.0 -2.806 4.860134566 0.0 0.0 0.0 25.55456" Properties=species:S:1:pos:R:3:forces:R:3 energy=-125.01305547 pbc="T T T"
C       -1.40686000       4.11893000      16.37048000       0.02300900      -0.00191600       0.03581100
C        2.80214000       1.68886000      16.37048000       0.02300900      -0.00191600       0.03581100
O        2.72857000       1.73318000      17.55456000       0.00417600      -0.00087800      -0.01721900
O       -1.48043000       4.16324000      17.55456000       0.00417600      -0.00087800      -0.01721900
Pt       4.20979000       0.88926000      10.32424000       0.00127800       0.00501100       0.01567100
Pt       2.85853000       1.66306000      12.58743000       0.05491400      -0.02231000       0.00996600
Pt       0.13014000       4.85941000      15.08047000      -0.04400000       0.01579600      -0.03882800
Pt       1.35732000       2.54642000       8.01186000       0.02370500      -0.02417700      -0.02035200
Pt       2.80717000       3.32093000      10.29716000      -0.01050500       0.00149600       0.02414400
Pt       1.43699000       4.10267000      12.62515000      -0.03902900       0.02933100      -0.00191300
Pt       2.77201000       0.10713000       8.00000000      -0.00364100       0.00456300      -0.04311500
Pt       0.03399000       1.67261000      12.62515000      -0.03902900       0.02933100      -0.00191300
Pt      -0.04568000       0.11635000       8.01186000       0.02370500      -0.02417700      -0.02035200
Pt       0.11318000       0.01057000      14.90546000      -0.00990700      -0.00691600       0.03583400
Pt      -1.43699000       2.53720000       8.00000000      -0.00364100       0.00456300      -0.04311500
Pt       0.00079000       3.31933000      10.32424000       0.00127800       0.00501100       0.01567100
Pt      -1.35047000       4.09313000      12.58743000       0.05491400      -0.02231000       0.00996600
Pt      -1.27286000       2.42934000      15.08047000      -0.04400000       0.01579600      -0.03882800
Pt       1.40417000       0.89086000      10.29716000      -0.01050500       0.00149600       0.02414400
Pt       1.51618000       2.44064000      14.90546000      -0.00990700      -0.00691600       0.03583400
20
Lattice="5.612 0.0 0.0 -2.806 4.860134566 0.0 0.0 0.0 25.56413" Properties=species:S:1:pos:R:3:forces:R:3 energy=-125.01382296 pbc="T T T"
C       -1.41153000       4.08999000      16.37841000       0.01738400      -0.01058400       0.02706600
C        2.79747000       1.65992000      16.37841000       0.01738400      -0.01058400       0.02706600
O        2.74836000       1.68687000      17.56413000       0.00087900       0.00747800      -0.01964600
O       -1.46064000       4.11693000      17.56413000       0.00087900       0.00747800      -0.01964600
Pt       4.18855000       0.86151000      10.32734000      -0.01176200      -0.00294200       0.01284600
Pt       2.84308000       1.64247000      12.59922000       0.03596400      -0.01843800      -0.00572800
Pt       0.11174000       4.83862000      15.06766000      -0.02330100       0.00068500       0.02272500
Pt       1.32900000       2.50592000       8.01289000       0.00477100       0.00168900       0.00858900
Pt       2.78421000       3.28997000      10.30804000      -0.00286300       0.00996200      -0.02224800
Pt       1.42446000       4.08226000      12.63260000      -0.01951900       0.00269700       0.03490000
Pt       2.74138000       0.07226000       8.00000000       0.00400300      -0.00447100       0.00260100
Pt       0.02146000       1.65219000      12.63260000      -0.01951900       0.00269700       0.03490000
Pt       5.53800000       0.07585000       8.01289000       0.00477100       0.00168900       0.00858900
Pt      -2.71074000       4.84718000      14.94084000      -0.00555600       0.01392300      -0.06110400
Pt       4.14438000       2.50232000       8.00000000       0.00400300      -0.00447100       0.00260100
Pt      -0.02045000       3.29158000      10.32734000      -0.01176200      -0.00294200       0.01284600
Pt      -1.36592000       4.07253000      12.59922000       0.03596400      -0.01843800      -0.00572800
Pt      -1.29126000       2.40855000      15.06766000      -0.02330100       0.00068500       0.02272500
Pt       1.38121000       0.85991000      10.30804000      -0.00286300       0.00996200      -0.02224800
Pt       1.49826000       2.41711000      14.94084000      -0.00555600       0.01392300      -0.06110400
20
Lattice="5.612 0.0 0.0 -2.806 4.860134566 0.0 0.0 0.0 25.54804" Properties=species:S:1:pos:R:3:forces:R:3 energy=-125.01319162 pbc="T T T"
C       -1.39409000       4.12455000      16.36320000       0.01956400      -0.00289600       0.02807900
C        2.81491000       1.69448000      16.36320000       0.01956400      -0.00289600       0.02807900
O        2.75107000       1.73230000      17.54804000      -0.00267400       0.00438700      -0.03459500
O       -1.45793000       4.16237000      17.54804000      -0.00267400       0.00438700      -0.03459500
Pt       4.21750000       0.90097000      10.32218000       0.02370700      -0.00603100      -0.01325000
Pt       2.86131000       1.67304000      12.58655000       0.01003500       0.00503100      -0.00934000
Pt       2.93567000       0.00806000      15.06140000      -0.01288800      -0.01547600       0.01985900
Pt       1.38021000       2.54592000       8.01435000       0.01118400       0.00610600      -0.02387900
Pt       2.81752000       3.33154000      10.30141000      -0.02015900      -0.00146600      -0.01531800
Pt       1.43528000       4.11615000      12.61685000       0.02854200      -0.01930900       0.05407100
Pt       2.79370000       0.11070000       8.00000000      -0.01431100      -0.00122700      -0.03094100
Pt       0.03228000       1.68608000      12.61685000       0.02854200      -0.01930900       0.05407100
Pt      -0.02279000       0.11585000       8.01435000       0.01118400       0.00610600      -0.02387900
Pt       0.11586000       0.01415000      14.90457000      -0.04300100       0.03088100       0.02531400
Pt      -1.41530000       2.54077000       8.00000000      -0.01431100      -0.00122700      -0.03094100
Pt       0.00850000       3.33103000      10.32218000       0.02370700      -0.00603100      -0.01325000
Pt      -1.34769000       4.10310000      12.58655000       0.01003500       0.00503100      -0.00934000
Pt      -1.27333000       2.43813000      15.06140000      -0.01288800      -0.01547600       0.01985900
Pt       1.41452000       0.90147000      10.30141000      -0.02015900      -0.00146600      -0.01531800
Pt       1.51886000       2.44421000      14.90457000      -0.04300100       0.03088100       0.02531400
20
Lattice="5.612 0.0 0.0 -2.806 4.860134566 0.0 0.0 0.0 25.54793" Properties=species:S:1:pos:R:3:forces:R:3 energy=-125.01275997 pbc="T T T"
C       -1.43638000       4.08311000      16.36268000       0.02257100      -0.00757100       0.03109600
C        2.77262000       1.65304000      16.36268000       0.02257100      -0.00757100       0.03109600
O        2.71331000       1.68784000      17.54793000       0.00109100       0.00029300      -0.04849400
O       -1.49569000       4.11791000      17.54793000       0.00109100       0.00029300      -0.04849400
Pt       4.18942000       0.84240000      10.32288000      -0.02139300       0.00040000      -0.02694600
Pt       2.82637000       1.63302000      12.58181000       0.03090900      -0.01062800       0.03511300
Pt       0.08819000       4.82859000      15.05702000      -0.00838200       0.00656800       0.03270400
Pt       1.34424000       2.46706000       8.01029000      -0.00209600       0.00301400      -0.01015300
Pt       2.78511000       3.27308000      10.29883000      -0.00710300      -0.00335600      -0.02128600
Pt       1.40340000       4.07426000      12.61906000       0.01097900      -0.00862900       0.04687600
Pt       2.75791000       0.03031000       8.00000000      -0.02128600       0.01769000      -0.03948800
Pt       0.00040000       1.64419000      12.61906000       0.01097900      -0.00862900       0.04687600
Pt       5.55324000       0.03700000       8.01029000      -0.00209600       0.00301400      -0.01015300
Pt      -2.73207000       4.83742000      14.90996000      -0.00529000       0.00222100       0.00057900
Pt       4.16091000       2.46037000       8.00000000      -0.02128600       0.01769000      -0.03948800
Pt      -0.01958000       3.27246000      10.32288000      -0.02139300       0.00040000      -0.02694600
Pt      -1.38263000       4.06309000      12.58181000       0.03090900      -0.01062800       0.03511300
Pt      -1.31481000       2.39852000      15.05702000      -0.00838200       0.00656800       0.03270400
Pt       1.38211000       0.84302000      10.29883000      -0.00710300      -0.00335600      -0.02128600
Pt       1.47693000       2.40735000      14.90996000      -0.00529000       0.00222100       0.00057900
20
Lattice="5.612 0.0 0.0 -2.806 4.860134566 0.0 0.0 0.0 25.56395" Properties=species:S:1:pos:R:3:forces:R:3 energy=-125.00834147 pbc="T T T"
C       -1.46259000       4.09191000      16.37845000       0.01247600      -0.00770300       0.05019100
C        2.74641000       1.66184000      16.37845000       0.01247600      -0.00770300       0.05019100
O        2.69020000       1.69317000      17.56395000      -0.00847200       0.00838400      -0.03713700
O       -1.51880000       4.12324000      17.56395000      -0.00847200       0.00838400      -0.03713700
Pt       4.19799000       0.82115000      10.32837000      -0.02430900       0.01545300      -0.01144400
Pt       2.81552000       1.62546000      12.59338000       0.01475700      -0.00707100       0.01939400
Pt       0.05883000       4.83594000      15.07416000       0.02782200       0.00345200      -0.03617500
Pt       1.37656000       2.44387000       8.01451000       0.01013800      -0.00257900       0.00297700
Pt       2.79443000       3.25096000      10.30362000      -0.01792900       0.00701700       0.01386200
Pt       1.39435000       4.06793000      12.63306000      -0.00565500      -0.00661300       0.02322500
Pt       2.79145000       0.00710000       8.00000000      -0.01378900       0.00492800       0.00311500
Pt      -0.00865000       1.63787000      12.63306000      -0.00565500      -0.00661300       0.02322500
Pt       5.58556000       0.01380000       8.01451000       0.01013800      -0.00257900       0.00297700
Pt      -2.76044000       4.84755000      14.93103000       0.00496000      -0.01526900      -0.02800800
Pt       4.19445000       2.43716000       8.00000000      -0.01378900       0.00492800       0.00311500
Pt      -0.01101000       3.25122000      10.32837000      -0.02430900       0.01545300      -0.01144400
Pt      -1.39348000       4.05553000      12.59338000       0.01475700      -0.00707100       0.01939400
Pt      -1.34417000       2.40587000      15.07416000       0.02782200       0.00345200      -0.03617500
Pt       1.39143000       0.82090000      10.30362000      -0.01792900       0.00701700       0.01386200
Pt       1.44856000       2.41748000      14.93103000       0.00496000      -0.01526900      -0.02800800
20
Lattice="5.612 0.0 0.0 -2.806 4.860134566 0.0 0.0 0.0 25.5485" Properties=species:S:1:pos:R:3:forces:R:3 energy=-125.01272703 pbc="T T T"
C       -1.43659000       4.08294000      16.36329000       0.02254900      -0.00690600       0.02700700
C        2.77241000       1.65288000      16.36329000       0.02254900      -0.00690600       0.02700700
O        2.71295000       1.68796000      17.54850000       0.00119600      -0.00022700      -0.04791700
O       -1.49605000       4.11803000      17.54850000       0.00119600      -0.00022700      -0.04791700
Pt       4.18947000       0.84218000      10.32294000      -0.02075500      -0.00046200      -0.02750600
Pt       2.82630000       1.63294000      12.58209000       0.03167500      -0.01036200       0.03596100
Pt       0.08798000       4.82865000      15.05753000      -0.00967500       0.00656400       0.03348900
Pt       1.34453000       2.46678000       8.01029000      -0.00505300       0.00380000      -0.00951900
Pt       2.78521000       3.27281000      10.29899000      -0.00770700      -0.00187500      -0.02179800
Pt       1.40323000       4.07427000      12.61913000       0.01154500      -0.00967300       0.04766700
Pt       2.75812000       0.03008000       8.00000000      -0.02018000       0.01660300      -0.03926200
Pt       0.00023000       1.64420000      12.61913000       0.01154500      -0.00967300       0.04766700
Pt       5.55353000       0.03672000       8.01029000      -0.00505300       0.00380000      -0.00951900
Pt      -2.73239000       4.83742000      14.91018000      -0.00359600       0.00254000       0.00187600
Pt       4.16112000       2.46014000       8.00000000      -0.02018000       0.01660300      -0.03926200
Pt      -0.01953000       3.27225000      10.32294000      -0.02075500      -0.00046200      -0.02750600
Pt      -1.38270000       4.06301000      12.58209000       0.03167500      -0.01036200       0.03596100
Pt      -1.31502000       2.39858000      15.05753000      -0.00967500       0.00656400       0.03348900
Pt       1.38221000       0.84274000      10.29899000      -0.00770700      -0.00187500      -0.02179800
Pt       1.47661000       2.40735000      14.91018000      -0.00359600       0.00254000       0.00187600
20
Lattice="5.612 0.0 0.0 -2.806 4.860134566 0.0 0.0 0.0 25.54763" Properties=species:S:1:pos:R:3:forces:R:3 energy=-125.01238977 pbc="T T T"
C       -1.38796000       4.13030000      16.36221000       0.01450200      -0.00765100       0.03270800
C        2.82104000       1.70023000      16.36221000       0.01450200      -0.00765100       0.03270800
O        2.76628000       1.73261000      17.54763000      -0.00774700       0.00163900      -0.03144000
O       -1.44272000       4.16267000      17.54763000      -0.00774700       0.00163900      -0.03144000
Pt       4.22344000       0.90548000      10.32127000       0.00543100      -0.00563900      -0.00194800
Pt       2.86147000       1.67925000      12.58679000       0.01623100       0.00281900      -0.00403100
Pt       2.93442000       0.01220000      15.05388000      -0.00137900      -0.00957000       0.03783500
Pt       1.39362000       2.54427000       8.01567000      -0.01062200       0.01631600      -0.02965400
Pt       2.82097000       3.33633000      10.30483000       0.00293700      -0.01110500      -0.03525100
Pt       1.43718000       4.12214000      12.61875000       0.02394700      -0.02162600       0.05527200
Pt       2.80644000       0.11185000       8.00000000      -0.00403600      -0.00493900      -0.01692000
Pt       0.03418000       1.69207000      12.61875000       0.02394700      -0.02162600       0.05527200
Pt      -0.00938000       0.11420000       8.01567000      -0.01062200       0.01631600      -0.02965400
Pt       0.11433000       0.01765000      14.91412000      -0.03926400       0.03975600      -0.00657200
Pt      -1.40256000       2.54192000       8.00000000      -0.00403600      -0.00493900      -0.01692000
Pt       0.01444000       3.33555000      10.32127000       0.00543100      -0.00563900      -0.00194800
Pt      -1.34753000       4.10932000      12.58679000       0.01623100       0.00281900      -0.00403100
Pt      -1.27458000       2.44226000      15.05388000      -0.00137900      -0.00957000       0.03783500
Pt       1.41797000       0.90626000      10.30483000       0.00293700      -0.01110500      -0.03525100
Pt       1.51733000       2.44771000      14.91412000      -0.03926400       0.03975600      -0.00657200
20
Lattice="5.612 0.0 0.0 -2.806 4.860134566 0.0 0.0 0.0 25.53376" Properties=species:S:1:pos:R:3:forces:R:3 energy=-125.00533934 pbc="T T T"
C       -1.45808000       4.09466000      16.34758000       0.01999700      -0.00931200       0.06078100
C        2.75092000       1.66460000      16.34758000       0.01999700      -0.00931200       0.06078100
O        2.70825000       1.69209000      17.53376000      -0.01913000       0.00166500      -0.04420100
O       -1.50075000       4.12215000      17.53376000      -0.01913000       0.00166500      -0.04420100
Pt       4.20035000       0.81850000      10.31821000      -0.02278900       0.00876300      -0.02827800
Pt       2.80964000       1.62552000      12.57840000       0.03173400      -0.01452900       0.02177000
Pt       0.05748000       4.83968000      15.03440000      -0.00903700       0.01231400       0.04210100
Pt       1.38878000       2.43697000       8.01059000       0.00016000      -0.00055400      -0.02217400
Pt       2.79714000       3.24812000      10.29901000      -0.02382800       0.01522600      -0.04851000
Pt       1.38922000       4.06540000      12.61181000       0.00589700      -0.00268100       0.06815600
Pt       2.80147000       0.00128000       8.00000000       0.00636800      -0.00330900      -0.03643700
Pt      -0.01378000       1.63533000      12.61181000       0.00589700      -0.00268100       0.06815600
Pt       5.59778000       0.00690000       8.01059000       0.00016000      -0.00055400      -0.02217400
Pt      -2.76556000       4.84887000      14.91207000       0.01062800      -0.00758300      -0.01320800
Pt       4.20447000       2.43135000       8.00000000       0.00636800      -0.00330900      -0.03643700
Pt      -0.00865000       3.24856000      10.31821000      -0.02278900       0.00876300      -0.02827800
Pt      -1.39936000       4.05559000      12.57840000       0.03173400      -0.01452900       0.02177000
Pt      -1.34552000       2.40961000      15.03440000      -0.00903700       0.01231400       0.04210100
Pt       1.39414000       0.81805000      10.29901000      -0.02382800       0.01522600      -0.04851000
Pt       1.44344000       2.41880000      14.91207000       0.01062800      -0.00758300      -0.01320800
20
Lattice="5.612 0.0 0.0 -2.806 4.860134566 0.0 0.0 0.0 25.55494" Properties=species:S:1:pos:R:3:forces:R:3 energy=-125.00807357 pbc="T T T"
C       -1.46393000       4.09067000      16.36926000       0.01642300      -0.00638900       0.03194200
C        2.74507000       1.66060000      16.36926000       0.01642300      -0.00638900       0.03194200
O        2.69336000       1.69043000      17.55494000      -0.00666100       0.00605300      -0.05380900
O       -1.51564000       4.12050000      17.55494000      -0.00666100       0.00605300      -0.05380900
Pt       4.19880000       0.81978000      10.32249000      -0.02008700       0.01038800       0.01628000
Pt       2.81229000       1.62551000      12.58770000       0.03852400      -0.01985700       0.00265000
Pt       0.05604000       4.83865000      15.05722000       0.03404900      -0.00505900       0.02085200
Pt       1.38220000       2.44065000       8.01348000       0.00438200      -0.00059800      -0.02420200
Pt       2.79599000       3.24931000      10.29934000      -0.02191600       0.00851800       0.02570600
Pt       1.39317000       4.06611000      12.62619000      -0.01822900       0.00582300       0.01311500
Pt       2.79648000       0.00416000       8.00000000      -0.00950600       0.00137100      -0.02569600
Pt      -0.00983000       1.63604000      12.62619000      -0.01822900       0.00582300       0.01311500
Pt       5.59120000       0.01058000       8.01348000       0.00438200      -0.00059800      -0.02420200
Pt      -2.76143000       4.84760000      14.92268000      -0.01698000      -0.00025000      -0.00683900
Pt       4.19948000       2.43423000       8.00000000      -0.00950600       0.00137100      -0.02569600
Pt      -0.01020000       3.24984000      10.32249000      -0.02008700       0.01038800       0.01628000
Pt      -1.39671000       4.05558000      12.58770000       0.03852400      -0.01985700       0.00265000
Pt      -1.34696000       2.40858000      15.05722000       0.03404900      -0.00505900       0.02085200
Pt       1.39299000       0.81925000      10.29934000      -0.02191600       0.00851800       0.02570600
Pt       1.44757000       2.41754000      14.92268000      -0.01698000      -0.00025000      -0.00683900
20
Lattice="5.612 0.0 0.0 -2.806 4.860134566 0.0 0.0 0.0 25.57025" Properties=species:S:1:pos:R:3:forces:R:3 energy=-125.00820285 pbc="T T T"
C       -1.45408000       4.09177000      16.38536000       0.00222100       0.00169800      -0.01322200
C        2.75492000       1.66170000      16.38536000       0.00221700       0.00172300      -0.01319600
O        2.69327000       1.69953000      17.57025000       0.00326900      -0.01139500      -0.03341700
O       -1.51573000       4.12959000      17.57025000       0.00327800      -0.01136100      -0.03341500
Pt       4.19299000       0.83044000      10.32239000      -0.00337300      -0.00260300       0.02286800
Pt       2.82026000       1.63036000      12.59865000       0.02086700      -0.00973000       0.00050700
Pt       0.07330000       4.83112000      15.08331000       0.01341500       0.01568400      -0.02878400
Pt       1.36029000       2.45444000       8.01299000      -0.01707400       0.00873700       0.02416400
Pt       2.79086000       3.25928000      10.30320000      -0.01524500       0.01124000       0.01157300
Pt       1.39957000       4.07221000      12.63148000      -0.01145000      -0.01191300      -0.01857200
Pt       2.77128000       0.01903000       8.00000000      -0.00183200       0.00123800       0.02646600
Pt      -0.00343000       1.64214000      12.63148000      -0.01145000      -0.01186300      -0.01858700
Pt       5.56929000       0.02437000       8.01299000      -0.01706900       0.00876400       0.02418000
Pt      -2.74803000       4.84048000      14.92773000       0.00921800      -0.00300100       0.00842900
Pt       4.17428000       2.44910000       8.00000000      -0.00182700       0.00120600       0.02646300
Pt      -0.01601000       3.26051000      10.32239000      -0.00339900      -0.00261100       0.02288400
Pt      -1.38874000       4.06043000      12.59865000       0.02086600      -0.00976800       0.00049800
Pt      -1.32970000       2.40105000      15.08331000       0.01343000       0.01573600      -0.02880300
Pt       1.38786000       0.82922000      10.30320000      -0.01527200       0.01117000       0.01155600
Pt       1.46097000       2.41041000      14.92773000       0.00921000      -0.00295200       0.00840900
20
Lattice="5.612 0.0 0.0 -2.806 4.860134566 0.0 0.0 0.0 25.5647" Properties=species:S:1:pos:R:3:forces:R:3 energy=-125.01376565 pbc="T T T"
C       -1.41139000       4.09031000      16.37899000       0.01678500      -0.00992800       0.02549900
C        2.79761000       1.66024000      16.37899000       0.01678500      -0.00992800       0.02549900
O        2.74827000       1.68731000      17.56470000       0.00111800       0.00795800      -0.02099000
O       -1.46073000       4.11738000      17.56470000       0.00111800       0.00795800      -0.02099000
Pt       4.18864000       0.86166000      10.32729000      -0.01172100      -0.00159900       0.01467600
Pt       2.84321000       1.64262000      12.59962000       0.03747200      -0.01983700      -0.00753400
Pt       0.11202000       4.83879000      15.06818000      -0.02718400      -0.00094100       0.02194100
Pt       1.32900000       2.50636000       8.01283000       0.00636100      -0.00072100       0.00875400
Pt       2.78431000       3.29011000      10.30814000      -0.00178200       0.00924100      -0.01923600
Pt       1.42470000       4.08236000      12.63291000      -0.02140200       0.00422700       0.03472100
Pt       2.74135000       0.07274000       8.00000000       0.00383500      -0.00276100       0.00227900
Pt       0.02170000       1.65229000      12.63291000      -0.02140200       0.00422700       0.03472100
Pt       5.53800000       0.07629000       8.01283000       0.00636100      -0.00072100       0.00875400
Pt      -2.71064000       4.84734000      14.94115000      -0.00348300       0.01436100      -0.06010900
Pt       4.14435000       2.50280000       8.00000000       0.00383500      -0.00276100       0.00227900
Pt      -0.02036000       3.29173000      10.32729000      -0.01172100      -0.00159900       0.01467600
Pt      -1.36579000       4.07268000      12.59962000       0.03747200      -0.01983700      -0.00753400
Pt      -1.29098000       2.40873000      15.06818000      -0.02718400      -0.00094100       0.02194100
Pt       1.38131000       0.86004000      10.30814000      -0.00178200       0.00924100      -0.01923600
Pt       1.49836000       2.41727000      14.94115000      -0.00348300       0.01436100      -0.06010900
20
Lattice="5.612 0.0 0.0 -2.806 4.860134566 0.0 0.0 0.0 25.58244" Properties=species:S:1:pos:R:3:forces:R:3 energy=-125.0129342 pbc="T T T"
C       -1.40117000       4.11199000      16.39739000       0.00731000      -0.00577800       0.00386400
C        2.80783000       1.68192000      16.39739000       0.00731000      -0.00577800       0.00386400
O        2.74689000       1.71774000      17.58244000      -0.00790800       0.00238400      -0.05154400
O       -1.46211000       4.14781000      17.58244000      -0.00790800       0.00238400      -0.05154400
Pt       4.19787000       0.87285000      10.32932000      -0.00980500       0.01465600       0.02186000
Pt       2.85527000       1.64893000      12.60220000       0.00252900       0.00028100       0.00364700
Pt       0.12068000       4.85028000      15.09371000      -0.01580100       0.00887500      -0.02269300
Pt       1.33496000       2.53224000       8.01075000       0.01370900      -0.02233400       0.02173200
Pt       2.79348000       3.30315000      10.30577000      -0.00310900       0.01119900       0.02509300
Pt       1.43178000       4.09169000      12.63975000       0.00303800      -0.00251600       0.01672500
Pt       2.74825000       0.09622000       8.00000000       0.00847600      -0.01208100      -0.00443600
Pt       0.02878000       1.66163000      12.63975000       0.00303800      -0.00251600       0.01672500
Pt       5.54396000       0.10218000       8.01075000       0.01370900      -0.02233400       0.02173200
Pt      -2.69956000       4.85797000      14.93848000       0.00156200       0.00531400      -0.01424800
Pt       4.15125000       2.52629000       8.00000000       0.00847600      -0.01208100      -0.00443600
Pt      -0.01113000       3.30292000      10.32932000      -0.00980500       0.01465600       0.02186000
Pt      -1.35373000       4.07900000      12.60220000       0.00252900       0.00028100       0.00364700
Pt      -1.28232000       2.42021000      15.09371000      -0.01580100       0.00887500      -0.02269300
Pt       1.39048000       0.87308000      10.30577000      -0.00310900       0.01119900       0.02509300
Pt       1.50944000       2.42790000      14.93848000       0.00156200       0.00531400      -0.01424800
20
Lattice="5.612 0.0 0.0 -2.806 4.860134566 0.0 0.0 0.0 25.57243" Properties=species:S:1:pos:R:3:forces:R:3 energy=-125.01284282 pbc="T T T"
C       -1.40682000       4.11951000      16.38777000       0.02085400      -0.01193800       0.04100500
C        2.80218000       1.68944000      16.38777000       0.02085400      -0.01193800       0.04100500
O        2.73512000       1.72862000      17.57243000      -0.00323600       0.00118000      -0.02376100
O       -1.47388000       4.15868000      17.57243000      -0.00323600       0.00118000      -0.02376100
Pt       4.20339000       0.87844000      10.33010000      -0.02246200       0.01698500      -0.01831500
Pt       2.85809000       1.65317000      12.59457000       0.00521500       0.00061500       0.03306800