48
Lattice="8.417993093 0.0 0.0 5.611995395 9.720261156 0.0 0.0 0.0 26.873262579" Properties=species:S:1:pos:R:3:forces:R:3 energy=-278.01590915 pbc="T T T"
Pt       0.00000000       0.00000000      10.00000000       0.00000100       0.00000100      -0.01904200
Pt       5.61200000       1.62004000      14.58218000      -0.00000200      -0.00000100      -0.19360900
Pt       9.82099000       4.05011000      14.58218000      -0.00000200      -0.00000100      -0.19360900
Pt       4.20900000       4.05011000      14.58218000      -0.00000200      -0.00000100      -0.19360900
Pt       7.01499000       4.05011000      14.58218000      -0.00000200      -0.00000100      -0.19360900
Pt      11.22399000       6.48017000      14.58218000      -0.00000200      -0.00000100      -0.19360900
Pt       5.61200000       6.48017000      14.58218000      -0.00000200      -0.00000100      -0.19360900
Pt       8.41799000       6.48017000      14.58218000      -0.00000200      -0.00000100      -0.19360900
Pt      12.62699000       8.91024000      14.58218000      -0.00000200      -0.00000100      -0.19360900
Pt       7.01499000       8.91024000      14.58218000      -0.00000200      -0.00000100      -0.19360900
Pt       2.80600000       1.62004000      14.58218000      -0.00000200      -0.00000100      -0.19360900
Pt       9.82099000       8.91024000      14.58218000      -0.00000200      -0.00000100      -0.19360900
Pt       2.80600000       0.00000000      16.87326000      -0.00000100      -0.00000100       0.01904200
Pt       5.61200000       0.00000000      16.87326000      -0.00000100      -0.00000100       0.01904200
Pt       1.40300000       2.43007000      16.87326000      -0.00000100      -0.00000100       0.01904200
Pt       4.20900000       2.43007000      16.87326000      -0.00000100      -0.00000100       0.01904200
Pt       7.01499000       2.43007000      16.87326000      -0.00000100      -0.00000100       0.01904200
Pt       2.80600000       4.86013000      16.87326000      -0.00000100      -0.00000100       0.01904200
Pt       5.61200000       4.86013000      16.87326000      -0.00000100      -0.00000100       0.01904200
Pt       8.41799000       4.86013000      16.87326000      -0.00000100      -0.00000100       0.01904200
Pt       4.20900000       7.29020000      16.87326000      -0.00000100      -0.00000100       0.01904200
Pt       0.00000000       0.00000000      16.87326000      -0.00000100      -0.00000100       0.01904200
Pt       8.41799000       1.62004000      14.58218000      -0.00000200      -0.00000100      -0.19360900
Pt      11.22399000       8.10022000      12.29109000       0.00000200       0.00000100       0.19360900
Pt       8.41799000       8.10022000      12.29109000       0.00000200       0.00000100       0.19360900
Pt       2.80600000       0.00000000      10.00000000       0.00000100       0.00000100      -0.01904200
Pt       5.61200000       0.00000000      10.00000000       0.00000100       0.00000100      -0.01904200
Pt       1.40300000       2.43007000      10.00000000       0.00000100       0.00000100      -0.01904200
Pt       4.20900000       2.43007000      10.00000000       0.00000100       0.00000100      -0.01904200
Pt       7.01499000       2.43007000      10.00000000       0.00000100       0.00000100      -0.01904200
Pt       2.80600000       4.86013000      10.00000000       0.00000100       0.00000100      -0.01904200
Pt       5.61200000       4.86013000      10.00000000       0.00000100       0.00000100      -0.01904200
Pt       8.41799000       4.86013000      10.00000000       0.00000100       0.00000100      -0.01904200
Pt       4.20900000       7.29020000      10.00000000       0.00000100       0.00000100      -0.01904200
Pt       7.01499000       7.29020000      10.00000000       0.00000100       0.00000100      -0.01904200
Pt       9.82099000       7.29020000      10.00000000       0.00000100       0.00000100      -0.01904200
Pt       1.40300000       0.81002000      12.29109000       0.00000200       0.00000100       0.19360900
Pt       4.20900000       0.81002000      12.29109000       0.00000200       0.00000100       0.19360900
Pt       7.01499000       0.81002000      12.29109000       0.00000200       0.00000100       0.19360900
Pt       2.80600000       3.24009000      12.29109000       0.00000200       0.00000100       0.19360900
Pt       5.61200000       3.24009000      12.29109000       0.00000200       0.00000100       0.19360900
Pt       8.41799000       3.24009000      12.29109000       0.00000200       0.00000100       0.19360900
Pt       4.20900000       5.67015000      12.29109000       0.00000200       0.00000100       0.19360900
Pt       7.01499000       5.67015000      12.29109000       0.00000200       0.00000100       0.19360900
Pt       9.82099000       5.67015000      12.29109000       0.00000200       0.00000100       0.19360900
Pt       5.61200000       8.10022000      12.29109000       0.00000200       0.00000100       0.19360900
Pt       7.01499000       7.29020000      16.87326000      -0.00000100      -0.00000100       0.01904200
Pt       9.82099000       7.29020000      16.87326000      -0.00000100      -0.00000100       0.01904200
