38
Lattice="5.611995395 0.0 0.0 5.611995395 9.720261156 0.0 0.0 0.0 29.886262579" Properties=species:S:1:pos:R:3:forces:R:3 energy=-232.99128758 pbc="T T T"
C        7.01499000       4.86013000      18.49926000      -0.00000000      -1.19185500      -3.34279500
C        4.20900000       7.29020000      18.72826000       0.00000000       0.08832700       0.03932500
C        7.01499000       7.29020000      18.72826000       0.00000000       1.16788400       0.31900900
O        7.01499000       4.86013000      19.65726000      -0.00000000      -0.80117000       1.68687800
O        7.01499000       7.29020000      19.88626000       0.00000000       0.69229400      -0.10277300
O        4.20900000       7.29020000      19.88626000       0.00000000      -0.02769600       0.02510600
Pt       7.01499000       7.29020000      16.87326000       0.00000000       0.66919200       0.55327200
Pt       4.20900000       7.29020000      16.87326000       0.00000000       0.18264700       0.73643600
Pt       5.61200000       4.86013000      16.87326000       0.35298200      -0.79596400       1.13201800
Pt       2.80600000       4.86013000      16.87326000      -0.35298200      -0.79596400       1.13201800
Pt       4.20900000       4.05011000      14.58218000       0.00000000       0.20593300       0.15638700
Pt       1.40300000       2.43007000      16.87326000      -0.00000000      -0.51774700       0.00483600
Pt       2.80600000       0.00000000      16.87326000       0.01183900       0.73389200      -0.16882900
Pt       0.00000000       0.00000000      16.87326000      -0.01183900       0.73389200      -0.16882900
Pt       7.01499000       8.91024000      14.58218000       0.00000000      -0.17382700      -0.11114800
Pt       9.82099000       8.91024000      14.58218000       0.00000000      -0.13848200      -0.09935100
Pt       5.61200000       6.48017000      14.58218000      -0.02415200       0.16583400      -0.32925100
Pt       8.41799000       6.48017000      14.58218000       0.02415200       0.16583400      -0.32925100
Pt       4.20900000       2.43007000      16.87326000       0.00000000      -0.18916500      -0.08778700
Pt       0.00000000       0.00000000      10.00000000       0.02784700       0.04061400      -0.04299300
Pt       5.61200000       1.62004000      14.58218000       0.01994900      -0.00580900      -0.30091400
Pt       2.80600000       0.00000000      10.00000000      -0.02784700       0.04061400      -0.04299300
Pt       1.40300000       2.43007000      10.00000000       0.00000000       0.01680100      -0.24015600
Pt       4.20900000       2.43007000      10.00000000       0.00000000       0.05999100      -0.11668900
Pt       2.80600000       4.86013000      10.00000000      -0.01134400      -0.06152600      -0.16928800
Pt       5.61200000       4.86013000      10.00000000       0.01134400      -0.06152600      -0.16928800
Pt       4.20900000       7.29020000      10.00000000       0.00000000      -0.01681900      -0.07125200
Pt       7.01499000       7.29020000      10.00000000       0.00000000      -0.01685200      -0.05502000
Pt       1.40300000       0.81002000      12.29109000      -0.00000000       0.09217800       0.12669500
Pt       4.20900000       0.81002000      12.29109000       0.00000000       0.03331400       0.09613400
Pt       2.80600000       3.24009000      12.29109000      -0.05278600      -0.03410700       0.07809300
Pt       5.61200000       3.24009000      12.29109000       0.05278600      -0.03410700       0.07809300
Pt       4.20900000       5.67015000      12.29109000       0.00000000      -0.11929700       0.14503700
Pt       7.01499000       5.67015000      12.29109000      -0.00000000      -0.05911600       0.09261600
Pt       5.61200000       8.10022000      12.29109000      -0.02009300       0.04453900       0.21778400
Pt       8.41799000       8.10022000      12.29109000       0.02009300       0.04453900       0.21778400
Pt       2.80600000       1.62004000      14.58218000      -0.01994900      -0.00580900      -0.30091400
Pt       7.01499000       4.05011000      14.58218000       0.00000000      -0.13148000      -0.58800100
38
Lattice="5.611995395 0.0 0.0 5.611995395 9.720261156 0.0 0.0 0.0 29.657262579" Properties=species:S:1:pos:R:3:forces:R:3 energy=-233.88912784 pbc="T T T"
C        5.61200000       6.48017000      18.27026000       0.30747100       0.51770300      -3.04715800
C        4.20900000       0.00000000      18.49926000      -0.03291900       0.12486300      -2.78146000
C        4.20900000       4.05011000      18.27026000      -0.37031000      -0.50395300      -3.04818700
O        5.61200000       6.48017000      19.42826000       0.03574800       0.12700300       2.86829200
O        4.20900000       4.05011000      19.42826000      -0.08670200      -0.10308400       2.87012400
O        4.20900000       0.00000000      19.65726000       0.00873000      -0.03018000       1.35494000
Pt       7.01499000       7.29020000      16.87326000       0.07919300      -0.01066400       0.49205300
Pt       4.20900000       7.29020000      16.87326000      -0.06975900      -0.10157300       0.39512000
Pt       5.61200000       4.86013000      16.87326000       0.21879300      -0.15169600       0.80706700
Pt       2.80600000       4.86013000      16.87326000      -0.04632900      -0.21923300       0.44969500
Pt       4.20900000       4.05011000      14.58218000       0.03898500      -0.07605600      -0.66519500
Pt       1.40300000       2.43007000      16.87326000       0.04649100      -0.16194400      -0.33673800
Pt       2.80600000       0.00000000      16.87326000       0.24689900      -0.07880300       1.20972900
Pt       0.00000000       0.00000000      16.87326000      -0.26303100       0.17629900       1.15221600
Pt       7.01499000       8.91024000      14.58218000       0.00468000       0.23705000       0.07648000
Pt       9.82099000       8.91024000      14.58218000      -0.02401100      -0.13316600      -0.65554400
Pt       5.61200000       6.48017000      14.58218000      -0.01109500      -0.03147200      -0.66502600
Pt       8.41799000       6.48017000      14.58218000       0.03260000       0.05206800      -0.22857700
Pt       4.20900000       2.43007000      16.87326000      -0.01655900       0.29855600       0.47157900
Pt       0.00000000       0.00000000      10.00000000      -0.06088800       0.00926800      -0.09627500
Pt       5.61200000       1.62004000      14.58218000      -0.02204600       0.00532700      -0.34478200
Pt       2.80600000       0.00000000      10.00000000       0.06897800       0.01459400      -0.08549200
Pt       1.40300000       2.43007000      10.00000000      -0.03465700       0.04685200      -0.05211300
Pt       4.20900000       2.43007000      10.00000000       0.03218200      -0.01369200      -0.12984100
Pt       2.80600000       4.86013000      10.00000000       0.03576200       0.02746300      -0.06244200
Pt       5.61200000       4.86013000      10.00000000      -0.03324300      -0.01594500      -0.11708500
Pt       4.20900000       7.29020000      10.00000000       0.01812800      -0.05747600      -0.16261800
Pt       7.01499000       7.29020000      10.00000000      -0.01832300      -0.00002700      -0.02144900
Pt       1.40300000       0.81002000      12.29109000       0.00854700      -0.04651900       0.04657700
Pt       4.20900000       0.81002000      12.29109000      -0.00598100       0.11795800       0.22482600
Pt       2.80600000       3.24009000      12.29109000      -0.01695100      -0.07817300      -0.02363300
Pt       5.61200000       3.24009000      12.29109000      -0.01600600      -0.00904700       0.10857900
Pt       4.20900000       5.67015000      12.29109000       0.02183000       0.01950000       0.14928000
Pt       7.01499000       5.67015000      12.29109000      -0.01926500      -0.09065900       0.18339900
Pt       5.61200000       8.10022000      12.29109000      -0.03274400       0.05429300       0.05920300
Pt       8.41799000       8.10022000      12.29109000       0.03966000      -0.01126900       0.10753400
Pt       2.80600000       1.62004000      14.58218000       0.00901600       0.02388500      -0.30995200
Pt       7.01499000       4.05011000      14.58218000      -0.07287500       0.07194700      -0.19312600
38
Lattice="5.611995395 0.0 0.0 5.611995395 9.720261156 0.0 0.0 0.0 29.657262579" Properties=species:S:1:pos:R:3:forces:R:3 energy=-232.42573784 pbc="T T T"
C        4.20900000       0.81002000      18.27026000      -1.39128800      -1.85376800      -3.35398100
C        5.61200000       2.43007000      18.49926000       2.10778900       2.19216300      -2.45540200
C        5.61200000       7.29020000      18.49926000       0.01895000      -0.02412800      -2.90709300
O        4.20900000       0.81002000      19.42826000      -1.63811500      -1.86863200       2.97892900
O        5.61200000       7.29020000      19.65726000      -0.00938400      -0.01079700       1.42498800
O        5.61200000       2.43007000      19.65726000       1.15108200       1.38385600       1.12394300
Pt       7.01499000       7.29020000      16.87326000      -0.27001400      -0.12067000       1.20251900
Pt       4.20900000       7.29020000      16.87326000       0.30230600      -0.47677900       1.20134700
Pt       5.61200000       4.86013000      16.87326000       0.02234300       0.05101800      -0.14428000
Pt       2.80600000       4.86013000      16.87326000      -0.03207400       0.13194500      -0.18480900
Pt       4.20900000       4.05011000      14.58218000       0.00172800      -0.14598400      -0.15647000
Pt       1.40300000       2.43007000      16.87326000      -0.53341600       0.17232000       1.25543300
Pt       2.80600000       0.00000000      16.87326000      -0.05599700      -0.01458600       0.55381000
Pt       0.00000000       0.00000000      16.87326000       0.18226200      -0.16465000       0.36661300
Pt       7.01499000       8.91024000      14.58218000      -0.02461000       0.14573000      -0.16646900
Pt       9.82099000       8.91024000      14.58218000      -0.01088000      -0.10634500      -0.55881300
Pt       5.61200000       6.48017000      14.58218000       0.01166400      -0.17153400      -0.62407600
Pt       8.41799000       6.48017000      14.58218000       0.01388400       0.24049200       0.11398900
Pt       4.20900000       2.43007000      16.87326000       0.10871000       0.51463900       1.37099200
Pt       0.00000000       0.00000000      10.00000000      -0.01100300      -0.05973400      -0.17174300
Pt       5.61200000       1.62004000      14.58218000       0.08260400      -0.09618000      -0.86514800
Pt       2.80600000       0.00000000      10.00000000       0.02078800      -0.00144600      -0.00766400
Pt       1.40300000       2.43007000      10.00000000      -0.04753600       0.01890900      -0.05972000
Pt       4.20900000       2.43007000      10.00000000       0.04485200       0.01736100      -0.08595300
Pt       2.80600000       4.86013000      10.00000000       0.01567500       0.02958600      -0.01584100
Pt       5.61200000       4.86013000      10.00000000      -0.01464200      -0.03435600      -0.15036200
Pt       4.20900000       7.29020000      10.00000000       0.03916000      -0.00097400      -0.18558800
Pt       7.01499000       7.29020000      10.00000000      -0.03946800       0.02041600      -0.07410600
Pt       1.40300000       0.81002000      12.29109000      -0.01983400      -0.09508400       0.06828300
Pt       4.20900000       0.81002000      12.29109000       0.05541200      -0.01736300       0.07820400
Pt       2.80600000       3.24009000      12.29109000      -0.00559000      -0.03624900       0.20766900
Pt       5.61200000       3.24009000      12.29109000      -0.00197800       0.07478700       0.25071400
Pt       4.20900000       5.67015000      12.29109000       0.04182400       0.07002800       0.03118100
Pt       7.01499000       5.67015000      12.29109000      -0.04575200      -0.01492800       0.01671500
Pt       5.61200000       8.10022000      12.29109000      -0.05782400      -0.00795300       0.13433600
Pt       8.41799000       8.10022000      12.29109000       0.05087600      -0.11022600       0.13788600
Pt       2.80600000       1.62004000      14.58218000      -0.06170800       0.33488500      -0.07304800
Pt       7.01499000       4.05011000      14.58218000      -0.00079300       0.03423400      -0.27698300
38
Lattice="5.611995395 0.0 0.0 5.611995395 9.720261156 0.0 0.0 0.0 29.428262579" Properties=species:S:1:pos:R:3:forces:R:3 energy=-233.6747417 pbc="T T T"
C        8.41799000       6.48017000      18.27026000       0.00000000      -0.10792100      -2.84793300
C        5.61200000       6.48017000      18.27026000      -0.00000000       0.08840900      -2.53579700
C        5.61200000       3.24009000      18.27026000       0.00000000      -0.22067800      -3.01368400
O        8.41799000       6.48017000      19.42826000       0.00000000      -0.06788300       2.72690600
O        5.61200000       3.24009000      19.42826000       0.00000000      -0.06476600       2.94596100
O        5.61200000       6.48017000      19.42826000       0.00000000       0.02035100       2.62624400
Pt       7.01499000       7.29020000      16.87326000      -0.01061500       0.31010100       0.78262800
Pt       4.20900000       7.29020000      16.87326000       0.01061500       0.31010100       0.78262800
Pt       5.61200000       4.86013000      16.87326000       0.00000000      -0.03759800       0.57193300
Pt       2.80600000       4.86013000      16.87326000       0.00000000      -0.02224400       0.35283800
Pt       4.20900000       4.05011000      14.58218000      -0.06320200       0.00582200      -0.47513000
Pt       1.40300000       2.43007000      16.87326000       0.23723200      -0.27136900       0.55201900
Pt       2.80600000       0.00000000      16.87326000       0.00000000       0.43754900      -0.22833600
Pt       0.00000000       0.00000000      16.87326000      -0.00000000       0.08243200      -0.23058600
Pt       7.01499000       8.91024000      14.58218000      -0.02399500      -0.07231900      -0.17819000
Pt       9.82099000       8.91024000      14.58218000       0.02399500      -0.07231900      -0.17819000
Pt       5.61200000       6.48017000      14.58218000       0.00000000      -0.09068000      -0.58416900
Pt       8.41799000       6.48017000      14.58218000       0.00000000       0.04046400      -0.62186700
Pt       4.20900000       2.43007000      16.87326000      -0.23723200      -0.27136900       0.55201900
Pt       0.00000000       0.00000000      10.00000000       0.00000000       0.01257800      -0.17587400
Pt       5.61200000       1.62004000      14.58218000       0.00000000      -0.06600400      -0.52683100
Pt       2.80600000       0.00000000      10.00000000      -0.00000000       0.01240300      -0.05089900
Pt       1.40300000       2.43007000      10.00000000      -0.01600100       0.01849200      -0.14243500
Pt       4.20900000       2.43007000      10.00000000       0.01600100       0.01849200      -0.14243500
Pt       2.80600000       4.86013000      10.00000000       0.00000000      -0.02238100      -0.08169700
Pt       5.61200000       4.86013000      10.00000000       0.00000000      -0.04532000      -0.13331500
Pt       4.20900000       7.29020000      10.00000000       0.01710400       0.01365800      -0.07605000
Pt       7.01499000       7.29020000      10.00000000      -0.01710400       0.01365800      -0.07605000
Pt       1.40300000       0.81002000      12.29109000      -0.05784900       0.02134000       0.02009200
Pt       4.20900000       0.81002000      12.29109000       0.05784900       0.02134000       0.02009200
Pt       2.80600000       3.24009000      12.29109000       0.00000000      -0.11660100       0.09941600
Pt       5.61200000       3.24009000      12.29109000       0.00000000      -0.05108600       0.19084800
Pt       4.20900000       5.67015000      12.29109000       0.01013900      -0.04127800       0.10755600
Pt       7.01499000       5.67015000      12.29109000      -0.01013900      -0.04127800       0.10755600
Pt       5.61200000       8.10022000      12.29109000       0.00000000       0.13826700       0.18820800
Pt       8.41799000       8.10022000      12.29109000       0.00000000      -0.00152300       0.23657200
Pt       2.80600000       1.62004000      14.58218000       0.00000000       0.11333800      -0.08891900
Pt       7.01499000       4.05011000      14.58218000       0.06320200       0.00582200      -0.47513000
38
Lattice="5.611995395 0.0 0.0 5.611995395 9.720261156 0.0 0.0 0.0 29.428262579" Properties=species:S:1:pos:R:3:forces:R:3 energy=-234.00377107 pbc="T T T"
C        5.61200000       1.62004000      18.27026000       0.00755400       0.18807000      -2.97200900
C        7.01499000       5.67015000      18.27026000       0.24826300      -0.55922100      -3.04067600
C        5.61200000       8.10022000      18.27026000      -0.37353400       0.27121400      -2.84650600
O        5.61200000       1.62004000      19.42826000       0.00552500       0.06948000       2.91871300
O        5.61200000       8.10022000      19.42826000      -0.08608100       0.04509500       2.80832100
O        7.01499000       5.67015000      19.42826000       0.04008500      -0.12695700       2.87065600
Pt       7.01499000       7.29020000      16.87326000       0.36429100       0.19527000       0.77159400
Pt       4.20900000       7.29020000      16.87326000      -0.16931600       0.17760300       0.45590800
Pt       5.61200000       4.86013000      16.87326000      -0.19932100      -0.18523200       0.41035000
Pt       2.80600000       4.86013000      16.87326000       0.23795900      -0.07929300       0.45079900
Pt       4.20900000       4.05011000      14.58218000       0.01102400       0.10549000      -0.10142900
Pt       1.40300000       2.43007000      16.87326000       0.12847000      -0.22384400       0.45485500
Pt       2.80600000       0.00000000      16.87326000       0.00470900       0.07922700      -0.44933900
Pt       0.00000000       0.00000000      16.87326000       0.00055300       0.11114300       0.69834800
Pt       7.01499000       8.91024000      14.58218000       0.01646300      -0.09809600      -0.31354700
Pt       9.82099000       8.91024000      14.58218000      -0.02464100       0.04774000      -0.39007300
Pt       5.61200000       6.48017000      14.58218000      -0.08073600      -0.05077100      -0.73111800
Pt       8.41799000       6.48017000      14.58218000       0.06121800       0.20102200      -0.25628100
Pt       4.20900000       2.43007000      16.87326000      -0.16546500       0.10434900       0.44556400
Pt       0.00000000       0.00000000      10.00000000       0.02797600      -0.03951000      -0.11434100
Pt       5.61200000       1.62004000      14.58218000       0.01045300      -0.15226800      -0.52797700
Pt       2.80600000       0.00000000      10.00000000      -0.01630700       0.02097100      -0.04351900
Pt       1.40300000       2.43007000      10.00000000      -0.03900700       0.00254100      -0.19118100
Pt       4.20900000       2.43007000      10.00000000       0.02304000       0.02073200      -0.05913700
Pt       2.80600000       4.86013000      10.00000000      -0.02008800      -0.01137100      -0.05928400
Pt       5.61200000       4.86013000      10.00000000       0.01142600      -0.02178400      -0.18917800
Pt       4.20900000       7.29020000      10.00000000       0.06233000       0.01399800      -0.09757700
Pt       7.01499000       7.29020000      10.00000000      -0.07513700       0.01155500      -0.12293400
Pt       1.40300000       0.81002000      12.29109000      -0.01167800       0.10479300       0.08966000
Pt       4.20900000       0.81002000      12.29109000       0.02450900      -0.01778000       0.11439800
Pt       2.80600000       3.24009000      12.29109000      -0.07206600      -0.07437600       0.14170700
Pt       5.61200000       3.24009000      12.29109000       0.05647300       0.09027200       0.04294300
Pt       4.20900000       5.67015000      12.29109000       0.03091700      -0.06388000       0.04830400
Pt       7.01499000       5.67015000      12.29109000      -0.03893500       0.00072100       0.09269400
Pt       5.61200000       8.10022000      12.29109000       0.00378300       0.03491100       0.31933000
Pt       8.41799000       8.10022000      12.29109000      -0.00163200      -0.10110600       0.05203200
Pt       2.80600000       1.62004000      14.58218000      -0.02306600       0.04251100      -0.17597400
Pt       7.01499000       4.05011000      14.58218000       0.01999000      -0.13322000      -0.50409700
38
Lattice="5.611995395 0.0 0.0 5.611995395 9.720261156 0.0 0.0 0.0 29.428262579" Properties=species:S:1:pos:R:3:forces:R:3 energy=-233.15477357 pbc="T T T"
C        4.20900000       4.05011000      18.27026000       0.47866200      -0.71139500      -2.67931800
C        7.01499000       4.05011000      18.27026000      -0.47866200      -0.71139500      -2.67931800
C        8.41799000       6.48017000      18.27026000      -0.00000000       1.32462500      -2.84754700
O        4.20900000       4.05011000      19.42826000       0.02353900      -0.11637900       2.60083100
O        8.41799000       6.48017000      19.42826000       0.00000000       0.15748100       2.74593300
O        7.01499000       4.05011000      19.42826000      -0.02353900      -0.11637900       2.60083100
Pt       7.01499000       7.29020000      16.87326000      -0.03436900       0.45114400       0.53116300
Pt       4.20900000       7.29020000      16.87326000       0.03436900       0.45114400       0.53116300
Pt       5.61200000       4.86013000      16.87326000       0.00000000      -0.00743800       0.71660300
Pt       2.80600000       4.86013000      16.87326000       0.00000000      -0.00590900       0.64791400
Pt       4.20900000       4.05011000      14.58218000      -0.08976700       0.06494600      -0.68039600
Pt       1.40300000       2.43007000      16.87326000      -0.02497700      -0.39937700       0.59636400
Pt       2.80600000       0.00000000      16.87326000      -0.00000000       0.22340800      -0.14088600
Pt       0.00000000       0.00000000      16.87326000       0.00000000      -0.03410300      -0.05029600
Pt       7.01499000       8.91024000      14.58218000      -0.01922500       0.02478400      -0.30144300
Pt       9.82099000       8.91024000      14.58218000       0.01922500       0.02478400      -0.30144300
Pt       5.61200000       6.48017000      14.58218000       0.00000000      -0.04206400      -0.14109000
Pt       8.41799000       6.48017000      14.58218000      -0.00000000      -0.11347600      -0.59937100
Pt       4.20900000       2.43007000      16.87326000       0.02497700      -0.39937700       0.59636400
Pt       0.00000000       0.00000000      10.00000000      -0.00000000       0.03595000      -0.14176600
Pt       5.61200000       1.62004000      14.58218000      -0.00000000      -0.03314400      -0.32611300
Pt       2.80600000       0.00000000      10.00000000       0.00000000       0.02723900      -0.14670300
Pt       1.40300000       2.43007000      10.00000000       0.02977600       0.00245300      -0.14227000
Pt       4.20900000       2.43007000      10.00000000      -0.02977600       0.00245300      -0.14227000
Pt       2.80600000       4.86013000      10.00000000       0.00000000      -0.04027000      -0.13686600
Pt       5.61200000       4.86013000      10.00000000       0.00000000      -0.00859900      -0.04283500
Pt       4.20900000       7.29020000      10.00000000      -0.01990500       0.02018400      -0.06105600
Pt       7.01499000       7.29020000      10.00000000       0.01990500       0.02018400      -0.06105600
Pt       1.40300000       0.81002000      12.29109000      -0.00532700      -0.00066200       0.05371500
Pt       4.20900000       0.81002000      12.29109000       0.00532700      -0.00066200       0.05371500
Pt       2.80600000       3.24009000      12.29109000      -0.00000000      -0.06570800       0.12505200
Pt       5.61200000       3.24009000      12.29109000       0.00000000      -0.11107600       0.07233200
Pt       4.20900000       5.67015000      12.29109000      -0.02647300      -0.04393000       0.20459500
Pt       7.01499000       5.67015000      12.29109000       0.02647300      -0.04393000       0.20459500
Pt       5.61200000       8.10022000      12.29109000       0.00000000       0.07008600       0.17900200
Pt       8.41799000       8.10022000      12.29109000       0.00000000       0.10825600       0.14664800
Pt       2.80600000       1.62004000      14.58218000       0.00000000      -0.06879400      -0.30438000
Pt       7.01499000       4.05011000      14.58218000       0.08976700       0.06494600      -0.68039600
38
Lattice="5.611995395 0.0 0.0 5.611995395 9.720261156 0.0 0.0 0.0 29.886262579" Properties=species:S:1:pos:R:3:forces:R:3 energy=-233.81017886 pbc="T T T"
C        5.61200000       4.86013000      18.72826000       0.00000000       0.05192800       0.34919200
C        1.40300000       0.81002000      18.27026000      -0.01122400       0.15626600      -3.02200300
C        4.20900000       0.81002000      18.27026000       0.01122400       0.15626600      -3.02200300
O        5.61200000       4.86013000      19.88626000       0.00000000      -0.01698200      -0.16177500
O        4.20900000       0.81002000      19.42826000      -0.00170500       0.04061100       2.85715900
O        1.40300000       0.81002000      19.42826000       0.00170500       0.04061100       2.85715900
Pt       7.01499000       7.29020000      16.87326000       0.24794400      -0.03790000      -0.26510100
Pt       4.20900000       7.29020000      16.87326000      -0.24794400      -0.03790000      -0.26510100
Pt       5.61200000       4.86013000      16.87326000       0.00000000      -0.01963600       0.87307200
Pt       2.80600000       4.86013000      16.87326000      -0.00000000       0.07440700      -0.26929600
Pt       4.20900000       4.05011000      14.58218000       0.12549900      -0.06161300      -0.09314000
Pt       1.40300000       2.43007000      16.87326000       0.20639600       0.16524900       0.39699800
Pt       2.80600000       0.00000000      16.87326000       0.00000000      -0.39068700       0.84890100
Pt       0.00000000       0.00000000      16.87326000      -0.00000000      -0.43725500       0.81438200
Pt       7.01499000       8.91024000      14.58218000      -0.00521400       0.02488400      -0.25270300
Pt       9.82099000       8.91024000      14.58218000       0.00521400       0.02488400      -0.25270300
Pt       5.61200000       6.48017000      14.58218000       0.00000000      -0.16750400      -0.26395500
Pt       8.41799000       6.48017000      14.58218000       0.00000000       0.00507200      -0.20330700
Pt       4.20900000       2.43007000      16.87326000      -0.20639600       0.16524900       0.39699800
Pt       0.00000000       0.00000000      10.00000000       0.00000000       0.00369400      -0.11496000
Pt       5.61200000       1.62004000      14.58218000       0.00000000       0.06470800      -0.60290300
Pt       2.80600000       0.00000000      10.00000000       0.00000000       0.00419700      -0.08013700
Pt       1.40300000       2.43007000      10.00000000      -0.03897900      -0.02226000      -0.10740200
Pt       4.20900000       2.43007000      10.00000000       0.03897900      -0.02226000      -0.10740200
Pt       2.80600000       4.86013000      10.00000000      -0.00000000       0.02623600      -0.01520800
Pt       5.61200000       4.86013000      10.00000000       0.00000000       0.00991200      -0.08169700
Pt       4.20900000       7.29020000      10.00000000       0.00858100       0.02880200      -0.17181300
Pt       7.01499000       7.29020000      10.00000000      -0.00858100       0.02880200      -0.17181300
Pt       1.40300000       0.81002000      12.29109000      -0.01354500      -0.04076800       0.20760800
Pt       4.20900000       0.81002000      12.29109000       0.01354500      -0.04076800       0.20760800
Pt       2.80600000       3.24009000      12.29109000       0.00000000       0.00244400       0.02483100
Pt       5.61200000       3.24009000      12.29109000      -0.00000000       0.06980800       0.22189200
Pt       4.20900000       5.67015000      12.29109000       0.00155500       0.12204100       0.14061200
Pt       7.01499000       5.67015000      12.29109000      -0.00155500       0.12204100       0.14061200
Pt       5.61200000       8.10022000      12.29109000       0.00000000      -0.05261300      -0.05498000
Pt       8.41799000       8.10022000      12.29109000      -0.00000000      -0.12080400       0.00644500
Pt       2.80600000       1.62004000      14.58218000       0.00000000       0.14245400      -0.67092300
Pt       7.01499000       4.05011000      14.58218000      -0.12549900      -0.06161300      -0.09314000
38
Lattice="5.611995395 0.0 0.0 5.611995395 9.720261156 0.0 0.0 0.0 29.657262579" Properties=species:S:1:pos:R:3:forces:R:3 energy=-230.89536543 pbc="T T T"
C        4.20900000       5.67015000      18.27026000       1.30699600      -1.99333800      -3.29985400
C        8.41799000       7.29020000      18.49926000       0.02014800       0.05692700      -1.82546000
C        7.01499000       8.91024000      18.27026000      -1.34495700       1.99690300      -3.20591500
O        4.20900000       5.67015000      19.42826000       1.70118200      -1.89483200       2.90995800
O        7.01499000       8.91024000      19.42826000      -1.68594000       1.89382600       2.85968100
O        8.41799000       7.29020000      19.65726000      -0.00433200      -0.01634200       0.65245900
Pt       7.01499000       7.29020000      16.87326000       0.34297900      -0.37558300       1.33526000