20
Lattice="2.805997698 0.0 0.0 5.611995395 9.720261156 0.0 0.0 0.0 29.428262579" Properties=species:S:1:pos:R:3:forces:R:3 energy=-124.87711834 pbc="T T T"
C        2.80600000       3.24009000      18.27026000      -0.00000000       0.14384600      -2.82446300
C        5.61200000       8.10022000      18.27026000      -0.00000000       0.14384600      -2.82446300
O        5.61200000       8.10022000      19.42826000      -0.00000000       0.04832400       2.71372100
O        2.80600000       3.24009000      19.42826000      -0.00000000       0.04832400       2.71372100
Pt       4.20900000       7.29020000      16.87326000      -0.00000000      -0.37975700       0.71697800
Pt       2.80600000       4.86013000      16.87326000       0.00000000       0.10793700       0.34467100
Pt       1.40300000       2.43007000      16.87326000      -0.00000000      -0.37975700       0.71697800
Pt       0.00000000       0.00000000      16.87326000       0.00000000       0.10793700       0.34467100
Pt       7.01499000       8.91024000      14.58218000       0.00000000       0.10884200      -0.64151600
Pt       5.61200000       6.48017000      14.58218000       0.00000000      -0.07470900      -0.23895100
Pt       0.00000000       0.00000000      10.00000000       0.00000000       0.01138800      -0.12179100
Pt       5.61200000       8.10022000      12.29109000      -0.00000000       0.04554500       0.10419700
Pt       4.20900000       5.67015000      12.29109000       0.00000000      -0.02566200       0.00455100
Pt       2.80600000       3.24009000      12.29109000      -0.00000000       0.04554500       0.10419700
Pt       1.40300000       0.81002000      12.29109000       0.00000000      -0.02566200       0.00455100
Pt       4.20900000       7.29020000      10.00000000       0.00000000       0.01424600      -0.05739800
Pt       2.80600000       4.86013000      10.00000000       0.00000000       0.01138800      -0.12179100
Pt       1.40300000       2.43007000      10.00000000       0.00000000       0.01424600      -0.05739800
Pt       2.80600000       1.62004000      14.58218000       0.00000000      -0.07470900      -0.23895100
Pt       4.20900000       4.05011000      14.58218000       0.00000000       0.10884200      -0.64151600
20
Lattice="2.805997698 0.0 0.0 5.611995395 9.720261156 0.0 0.0 0.0 29.886262579" Properties=species:S:1:pos:R:3:forces:R:3 energy=-123.89899137 pbc="T T T"
C        2.80600000       4.86013000      18.72826000       0.00000000      -1.24187700       0.21381300
C        5.61200000       7.29020000      18.49926000       0.00000000       1.35102900      -3.15798600
O        5.61200000       7.29020000      19.65726000      -0.00000000       0.75035200       1.34735500
O        2.80600000       4.86013000      19.88626000      -0.00000000      -0.68575400      -0.01962700
Pt       4.20900000       7.29020000      16.87326000      -0.00000000       0.37384700       2.36143200
Pt       2.80600000       4.86013000      16.87326000      -0.00000000      -0.77633900       0.54103100
Pt       1.40300000       2.43007000      16.87326000       0.00000000      -0.75094800      -0.14965000
Pt       0.00000000       0.00000000      16.87326000      -0.00000000       0.81680900      -0.14838000
Pt       7.01499000       8.91024000      14.58218000      -0.00000000      -0.00587700      -0.35413700
Pt       5.61200000       6.48017000      14.58218000      -0.00000000       0.05957900      -0.24447500
Pt       0.00000000       0.00000000      10.00000000      -0.00000000       0.07701500      -0.08379300
Pt       5.61200000       8.10022000      12.29109000      -0.00000000       0.05550700       0.19095900
Pt       4.20900000       5.67015000      12.29109000      -0.00000000      -0.09820100       0.14502100
Pt       2.80600000       3.24009000      12.29109000      -0.00000000      -0.03119000       0.04807400
Pt       1.40300000       0.81002000      12.29109000      -0.00000000       0.06954100       0.07347700
Pt       4.20900000       7.29020000      10.00000000      -0.00000000       0.00198400       0.00483500
Pt       2.80600000       4.86013000      10.00000000      -0.00000000      -0.06981000      -0.17088100
Pt       1.40300000       2.43007000      10.00000000      -0.00000000       0.01448200      -0.17846200
Pt       2.80600000       1.62004000      14.58218000      -0.00000000      -0.02931900      -0.23366200
Pt       4.20900000       4.05011000      14.58218000      -0.00000000       0.11916800      -0.18494400
20
Lattice="2.805997698 0.0 0.0 5.611995395 9.720261156 0.0 0.0 0.0 29.657262579" Properties=species:S:1:pos:R:3:forces:R:3 energy=-124.51773724 pbc="T T T"
C        2.80600000       1.62004000      18.27026000      -0.00000000      -0.34749100      -2.96181600
C        4.20900000       4.86013000      18.49926000       0.00000000       0.28697700      -2.76874900
O        4.20900000       4.86013000      19.65726000       0.00000000      -0.04383200       1.11784300
O        2.80600000       1.62004000      19.42826000       0.00000000      -0.00722000       2.79716200
Pt       4.20900000       7.29020000      16.87326000       0.00000000       0.69580200      -0.20978200
Pt       2.80600000       4.86013000      16.87326000      -0.00000000       0.14658800       2.45253800
Pt       1.40300000       2.43007000      16.87326000      -0.00000000      -0.44174100       0.55840200
Pt       0.00000000       0.00000000      16.87326000       0.00000000      -0.37198500       0.60536800
Pt       7.01499000       8.91024000      14.58218000      -0.00000000      -0.05941800      -0.30544300
Pt       5.61200000       6.48017000      14.58218000       0.00000000       0.00958900      -0.35114800
Pt       0.00000000       0.00000000      10.00000000      -0.00000000       0.04043000      -0.09194400
Pt       5.61200000       8.10022000      12.29109000       0.00000000      -0.00724900      -0.02042700
Pt       4.20900000       5.67015000      12.29109000       0.00000000       0.09608800       0.14605000
Pt       2.80600000       3.24009000      12.29109000       0.00000000      -0.07591300       0.14445100
Pt       1.40300000       0.81002000      12.29109000       0.00000000      -0.05934600       0.04451100
Pt       4.20900000       7.29020000      10.00000000       0.00000000       0.04662300      -0.06048600
Pt       2.80600000       4.86013000      10.00000000       0.00000000      -0.00898400      -0.00667100
Pt       1.40300000       2.43007000      10.00000000       0.00000000      -0.03484500      -0.11887000
Pt       2.80600000       1.62004000      14.58218000       0.00000000       0.05678200      -0.67510900
Pt       4.20900000       4.05011000      14.58218000       0.00000000       0.07914400      -0.29588200
20
Lattice="2.805997698 0.0 0.0 5.611995395 9.720261156 0.0 0.0 0.0 29.657262579" Properties=species:S:1:pos:R:3:forces:R:3 energy=-124.62968872 pbc="T T T"
C        2.80600000       3.24009000      18.27026000      -0.00000000       0.16078400      -2.99774300
C        5.61200000       7.29020000      18.49926000       0.00000000       0.09663100      -2.79269100
O        5.61200000       7.29020000      19.65726000       0.00000000      -0.01234400       1.14893900
O        2.80600000       3.24009000      19.42826000       0.00000000       0.03671600       2.81256500
Pt       4.20900000       7.29020000      16.87326000       0.00000000      -0.18691700       2.47706100
Pt       2.80600000       4.86013000      16.87326000      -0.00000000      -0.21773000       0.30381200
Pt       1.40300000       2.43007000      16.87326000       0.00000000      -0.45907100       0.87428000
Pt       0.00000000       0.00000000      16.87326000       0.00000000       0.41037000      -0.30703300
Pt       7.01499000       8.91024000      14.58218000       0.00000000      -0.02448400      -0.33248100
Pt       5.61200000       6.48017000      14.58218000       0.00000000       0.01274900      -0.22535300
Pt       0.00000000       0.00000000      10.00000000       0.00000000       0.02997400      -0.10429300
Pt       5.61200000       8.10022000      12.29109000      -0.00000000       0.11085000       0.12728400
Pt       4.20900000       5.67015000      12.29109000       0.00000000      -0.01561500       0.06022900
Pt       2.80600000       3.24009000      12.29109000      -0.00000000      -0.04744100       0.17909700
Pt       1.40300000       0.81002000      12.29109000       0.00000000      -0.06292500      -0.07236700
Pt       4.20900000       7.29020000      10.00000000       0.00000000       0.01897600      -0.01961900
Pt       2.80600000       4.86013000      10.00000000      -0.00000000      -0.03154800      -0.09295300
Pt       1.40300000       2.43007000      10.00000000       0.00000000       0.02329400      -0.08233900
Pt       2.80600000       1.62004000      14.58218000      -0.00000000       0.04092600      -0.29918000
Pt       4.20900000       4.05011000      14.58218000       0.00000000       0.11680300      -0.65721300
20
Lattice="2.805997698 0.0 0.0 5.611995395 9.720261156 0.0 0.0 0.0 29.886262579" Properties=species:S:1:pos:R:3:forces:R:3 energy=-124.83632888 pbc="T T T"
C        0.00000000       0.00000000      18.72826000      -0.00000000       0.06057100       0.13723400
C        4.20900000       5.67015000      18.27026000      -0.00000000       0.14202700      -3.09353400
O        4.20900000       5.67015000      19.42826000      -0.00000000       0.04466600       2.91543500
O        0.00000000       0.00000000      19.88626000      -0.00000000      -0.02187200      -0.04328900
Pt       4.20900000       7.29020000      16.87326000      -0.00000000      -0.18783100       0.24276700
Pt       2.80600000       4.86013000      16.87326000       0.00000000      -0.42841600       0.84033300
Pt       1.40300000       2.43007000      16.87326000      -0.00000000       0.32084400      -0.37686800
Pt       0.00000000       0.00000000      16.87326000       0.00000000       0.03675400       0.69660700
Pt       7.01499000       8.91024000      14.58218000       0.00000000      -0.03211300      -0.17233200
Pt       5.61200000       6.48017000      14.58218000      -0.00000000       0.12327300      -0.63729200
Pt       0.00000000       0.00000000      10.00000000       0.00000000       0.00355200      -0.03630000
Pt       5.61200000       8.10022000      12.29109000      -0.00000000       0.00943700       0.04099600
Pt       4.20900000       5.67015000      12.29109000       0.00000000      -0.04430700       0.18863000
Pt       2.80600000       3.24009000      12.29109000      -0.00000000      -0.05627200      -0.07604100
Pt       1.40300000       0.81002000      12.29109000      -0.00000000       0.11550300       0.14419800
Pt       4.20900000       7.29020000      10.00000000      -0.00000000      -0.05228000      -0.13160600
Pt       2.80600000       4.86013000      10.00000000      -0.00000000       0.04789900      -0.11643600
Pt       1.40300000       2.43007000      10.00000000      -0.00000000       0.02538600      -0.11265300
Pt       2.80600000       1.62004000      14.58218000      -0.00000000      -0.16554300      -0.10687800
Pt       4.20900000       4.05011000      14.58218000       0.00000000       0.05872500      -0.30297100
20
Lattice="2.805997698 0.0 0.0 5.611995395 9.720261156 0.0 0.0 0.0 29.657262579" Properties=species:S:1:pos:R:3:forces:R:3 energy=-124.3664244 pbc="T T T"
C        4.20900000       4.86013000      18.49926000       0.00000000       0.07499600      -2.93634000
C        1.40300000       0.00000000      18.49926000       0.00000000       0.07499600      -2.93634000
O        1.40300000       0.00000000      19.65726000       0.00000000      -0.02097100       1.25424300
O        4.20900000       4.86013000      19.65726000       0.00000000      -0.02097100       1.25424300
Pt       4.20900000       7.29020000      16.87326000       0.00000000       0.06144800      -0.30496500
Pt       2.80600000       4.86013000      16.87326000      -0.00000000      -0.23921200       2.55109500
Pt       1.40300000       2.43007000      16.87326000       0.00000000       0.06144800      -0.30496500
Pt       0.00000000       0.00000000      16.87326000      -0.00000000      -0.23921200       2.55109500
Pt       7.01499000       8.91024000      14.58218000      -0.00000000       0.15191300      -0.30047600
Pt       5.61200000       6.48017000      14.58218000       0.00000000       0.00325700      -0.31895800
Pt       0.00000000       0.00000000      10.00000000       0.00000000       0.03132200      -0.07301100
Pt       5.61200000       8.10022000      12.29109000      -0.00000000      -0.03382100      -0.01733900
Pt       4.20900000       5.67015000      12.29109000       0.00000000      -0.01854000       0.22732600
Pt       2.80600000       3.24009000      12.29109000      -0.00000000      -0.03382100      -0.01733900
Pt       1.40300000       0.81002000      12.29109000       0.00000000      -0.01854000       0.22732600
Pt       4.20900000       7.29020000      10.00000000       0.00000000      -0.01039300      -0.08157600
Pt       2.80600000       4.86013000      10.00000000       0.00000000       0.03132200      -0.07301100
Pt       1.40300000       2.43007000      10.00000000       0.00000000      -0.01039300      -0.08157600
Pt       2.80600000       1.62004000      14.58218000       0.00000000       0.00325700      -0.31895800
Pt       4.20900000       4.05011000      14.58218000      -0.00000000       0.15191300      -0.30047600
20
Lattice="2.805997698 0.0 0.0 5.611995395 9.720261156 0.0 0.0 0.0 29.428262579" Properties=species:S:1:pos:R:3:forces:R:3 energy=-124.82208745 pbc="T T T"
C        4.20900000       5.67015000      18.27026000      -0.00000000       0.19897300      -2.84155100
C        2.80600000       1.62004000      18.27026000       0.00000000      -0.14133100      -2.77101700
O        2.80600000       1.62004000      19.42826000       0.00000000      -0.04320800       2.67660000
O        4.20900000       5.67015000      19.42826000      -0.00000000       0.02345400       2.70863300
Pt       4.20900000       7.29020000      16.87326000       0.00000000       0.37069300       0.43164600
Pt       2.80600000       4.86013000      16.87326000       0.00000000      -0.04519700       0.66741300
Pt       1.40300000       2.43007000      16.87326000       0.00000000      -0.08435300       0.58569000
Pt       0.00000000       0.00000000      16.87326000       0.00000000      -0.32468700       0.40670700
Pt       7.01499000       8.91024000      14.58218000       0.00000000      -0.14781300      -0.16468900
Pt       5.61200000       6.48017000      14.58218000       0.00000000       0.12214900      -0.65047600
Pt       0.00000000       0.00000000      10.00000000       0.00000000       0.01568200      -0.07027500
Pt       5.61200000       8.10022000      12.29109000       0.00000000       0.01559200       0.04828200
Pt       4.20900000       5.67015000      12.29109000       0.00000000       0.02282900       0.09814700
Pt       2.80600000       3.24009000      12.29109000      -0.00000000      -0.07291400       0.08366700
Pt       1.40300000       0.81002000      12.29109000       0.00000000       0.03669300      -0.01631400
Pt       4.20900000       7.29020000      10.00000000      -0.00000000       0.04508000      -0.08706600
Pt       2.80600000       4.86013000      10.00000000       0.00000000      -0.01333100      -0.02813100
Pt       1.40300000       2.43007000      10.00000000       0.00000000       0.00720800      -0.13819300
Pt       2.80600000       1.62004000      14.58218000       0.00000000       0.02768500      -0.66266800
Pt       4.20900000       4.05011000      14.58218000       0.00000000      -0.01320300      -0.27640300
20
Lattice="2.805997698 0.0 0.0 5.611995395 9.720261156 0.0 0.0 0.0 29.886262579" Properties=species:S:1:pos:R:3:forces:R:3 energy=-124.56995686 pbc="T T T"
C        1.40300000       0.00000000      18.49926000       0.00000000       0.07571300      -3.05762000
C        2.80600000       4.86013000      18.72826000      -0.00000000       0.01569400      -0.02548000
O        2.80600000       4.86013000      19.88626000       0.00000000      -0.00750800       0.06179100
O        1.40300000       0.00000000      19.65726000       0.00000000      -0.02102000       1.34368500
Pt       4.20900000       7.29020000      16.87326000       0.00000000      -0.01990700      -0.36984700
Pt       2.80600000       4.86013000      16.87326000      -0.00000000      -0.01136600       0.80006100
Pt       1.40300000       2.43007000      16.87326000       0.00000000       0.09074200      -0.36517700
Pt       0.00000000       0.00000000      16.87326000       0.00000000      -0.23015100       2.54013900
Pt       7.01499000       8.91024000      14.58218000      -0.00000000       0.16908400      -0.30409000
Pt       5.61200000       6.48017000      14.58218000      -0.00000000      -0.13062800      -0.08963700
Pt       0.00000000       0.00000000      10.00000000       0.00000000       0.05634300      -0.11592100
Pt       5.61200000       8.10022000      12.29109000      -0.00000000      -0.03073200      -0.01710700
Pt       4.20900000       5.67015000      12.29109000       0.00000000      -0.01409800       0.23964200
Pt       2.80600000       3.24009000      12.29109000       0.00000000      -0.01663500      -0.03655900
Pt       1.40300000       0.81002000      12.29109000      -0.00000000      -0.01176000       0.24056800
Pt       4.20900000       7.29020000      10.00000000       0.00000000      -0.01491800      -0.07947300
Pt       2.80600000       4.86013000      10.00000000      -0.00000000       0.01441600      -0.09298900
Pt       1.40300000       2.43007000      10.00000000       0.00000000      -0.02668700      -0.11908000
Pt       2.80600000       1.62004000      14.58218000       0.00000000       0.00585600      -0.29276600
Pt       4.20900000       4.05011000      14.58218000       0.00000000       0.10756000      -0.26014000
20
Lattice="2.805997698 0.0 0.0 5.611995395 9.720261156 0.0 0.0 0.0 29.886262579" Properties=species:S:1:pos:R:3:forces:R:3 energy=-124.35384708 pbc="T T T"
C        1.40300000       2.43007000      18.72826000       0.00000000      -0.80623300      -0.16222300
C        2.80600000       4.86013000      18.72826000       0.00000000       0.81853000      -0.17290000
O        2.80600000       4.86013000      19.88626000       0.00000000       0.21512100       0.17124500
O        1.40300000       2.43007000      19.88626000       0.00000000      -0.22175600       0.17394200
Pt       4.20900000       7.29020000      16.87326000       0.00000000       0.73635400      -0.19706700
Pt       2.80600000       4.86013000      16.87326000      -0.00000000       0.64180100       0.60185300
Pt       1.40300000       2.43007000      16.87326000      -0.00000000      -0.62681100       0.59949700
Pt       0.00000000       0.00000000      16.87326000      -0.00000000      -0.74203500      -0.14136900
Pt       7.01499000       8.91024000      14.58218000       0.00000000      -0.03148900      -0.26827600
Pt       5.61200000       6.48017000      14.58218000       0.00000000      -0.15498200      -0.14173600
Pt       0.00000000       0.00000000      10.00000000       0.00000000       0.03356800      -0.19543100
Pt       5.61200000       8.10022000      12.29109000       0.00000000       0.08029400       0.05821200
Pt       4.20900000       5.67015000      12.29109000       0.00000000       0.05991000       0.18970900
Pt       2.80600000       3.24009000      12.29109000       0.00000000      -0.07911300       0.13392200
Pt       1.40300000       0.81002000      12.29109000       0.00000000      -0.02781100       0.03468600
Pt       4.20900000       7.29020000      10.00000000       0.00000000       0.07270200      -0.07741100
Pt       2.80600000       4.86013000      10.00000000       0.00000000      -0.00999800       0.00023800
Pt       1.40300000       2.43007000      10.00000000       0.00000000      -0.07991800      -0.18619100
Pt       2.80600000       1.62004000      14.58218000       0.00000000       0.10278500      -0.20311900
Pt       4.20900000       4.05011000      14.58218000       0.00000000       0.01908300      -0.21758300
20
Lattice="2.805997698 0.0 0.0 5.611995395 9.720261156 0.0 0.0 0.0 29.886262579" Properties=species:S:1:pos:R:3:forces:R:3 energy=-124.78377578 pbc="T T T"
C        7.01499000       8.91024000      18.27026000       0.00000000      -0.12613100      -3.00669100
C        2.80600000       4.86013000      18.72826000      -0.00000000      -0.03059400       0.14470700
O        2.80600000       4.86013000      19.88626000       0.00000000       0.00652500      -0.04762600
O        7.01499000       8.91024000      19.42826000      -0.00000000      -0.05644500       2.87634100
Pt       4.20900000       7.29020000      16.87326000       0.00000000       0.34579600       0.23211700
Pt       2.80600000       4.86013000      16.87326000       0.00000000      -0.08179400       0.71645400
Pt       1.40300000       2.43007000      16.87326000       0.00000000      -0.29856600      -0.33986900
Pt       0.00000000       0.00000000      16.87326000      -0.00000000       0.30513300       0.78029700
Pt       7.01499000       8.91024000      14.58218000      -0.00000000       0.06259400      -0.71106400
Pt       5.61200000       6.48017000      14.58218000       0.00000000      -0.14977100      -0.16315700
Pt       0.00000000       0.00000000      10.00000000      -0.00000000       0.07106300      -0.11105900
Pt       5.61200000       8.10022000      12.29109000       0.00000000      -0.02063300       0.00748600
Pt       4.20900000       5.67015000      12.29109000       0.00000000      -0.06113700       0.16301700
Pt       2.80600000       3.24009000      12.29109000       0.00000000       0.02641500      -0.05389400
Pt       1.40300000       0.81002000      12.29109000       0.00000000       0.01112000       0.20907600
Pt       4.20900000       7.29020000      10.00000000       0.00000000      -0.02189500      -0.02728500
Pt       2.80600000       4.86013000      10.00000000       0.00000000       0.01207900      -0.13558100
Pt       1.40300000       2.43007000      10.00000000       0.00000000      -0.02467200      -0.12494700
Pt       2.80600000       1.62004000      14.58218000       0.00000000      -0.08665800      -0.15198500
Pt       4.20900000       4.05011000      14.58218000       0.00000000       0.11757000      -0.25633700
20
Lattice="2.805997698 0.0 0.0 5.611995395 9.720261156 0.0 0.0 0.0 29.886262579" Properties=species:S:1:pos:R:3:forces:R:3 energy=-124.78326127 pbc="T T T"
C        5.61200000       8.10022000      18.27026000       0.00000000       0.36070800      -3.17848900
C        2.80600000       4.86013000      18.72826000      -0.00000000      -0.22986300       0.18053300
O        2.80600000       4.86013000      19.88626000      -0.00000000       0.02741800      -0.07666200
O        5.61200000       8.10022000      19.42826000       0.00000000       0.02091500       2.97511800
Pt       4.20900000       7.29020000      16.87326000       0.00000000       0.24307300       0.54306200
Pt       2.80600000       4.86013000      16.87326000       0.00000000      -0.30231000       0.62310000
Pt       1.40300000       2.43007000      16.87326000      -0.00000000      -0.66484800      -0.26813000
Pt       0.00000000       0.00000000      16.87326000       0.00000000       0.48431400       0.54041700
Pt       7.01499000       8.91024000      14.58218000       0.00000000       0.08689600      -0.71114600
Pt       5.61200000       6.48017000      14.58218000       0.00000000      -0.05432700      -0.19913900
Pt       0.00000000       0.00000000      10.00000000      -0.00000000       0.07912400      -0.09588700
Pt       5.61200000       8.10022000      12.29109000       0.00000000       0.01245400       0.12359200
Pt       4.20900000       5.67015000      12.29109000       0.00000000      -0.10439300       0.08237500
Pt       2.80600000       3.24009000      12.29109000       0.00000000       0.07460700      -0.05557800
Pt       1.40300000       0.81002000      12.29109000       0.00000000       0.07185300       0.14104900
Pt       4.20900000       7.29020000      10.00000000       0.00000000      -0.01144100      -0.00259600
Pt       2.80600000       4.86013000      10.00000000       0.00000000      -0.01796200      -0.17470200
Pt       1.40300000       2.43007000      10.00000000       0.00000000      -0.00502700      -0.13259900
Pt       2.80600000       1.62004000      14.58218000       0.00000000      -0.14226800      -0.08144200
Pt       4.20900000       4.05011000      14.58218000       0.00000000       0.07107500      -0.23287500
20
Lattice="2.805997698 0.0 0.0 5.611995395 9.720261156 0.0 0.0 0.0 29.428262579" Properties=species:S:1:pos:R:3:forces:R:3 energy=-124.69581253 pbc="T T T"
C        5.61200000       6.48017000      18.27026000      -0.00000000       0.12577800      -2.50708300
C        2.80600000       3.24009000      18.27026000       0.00000000      -0.10615400      -2.60658200
O        2.80600000       3.24009000      19.42826000       0.00000000      -0.02601800       2.65686800
O        5.61200000       6.48017000      19.42826000       0.00000000       0.01478000       2.62522600
Pt       4.20900000       7.29020000      16.87326000       0.00000000       0.31379800       0.75405900
Pt       2.80600000       4.86013000      16.87326000       0.00000000       0.15840100       0.36793200
Pt       1.40300000       2.43007000      16.87326000      -0.00000000      -0.48238200       0.82427100
Pt       0.00000000       0.00000000      16.87326000       0.00000000       0.01627400      -0.30816100
Pt       7.01499000       8.91024000      14.58218000       0.00000000      -0.08419800      -0.18504200
Pt       5.61200000       6.48017000      14.58218000      -0.00000000      -0.09550800      -0.58193800
Pt       0.00000000       0.00000000      10.00000000       0.00000000       0.02760800      -0.13331800
Pt       5.61200000       8.10022000      12.29109000       0.00000000       0.11097500       0.14092600
Pt       4.20900000       5.67015000      12.29109000       0.00000000       0.00622800       0.09603000
Pt       2.80600000       3.24009000      12.29109000       0.00000000      -0.07565600       0.13692100
Pt       1.40300000       0.81002000      12.29109000       0.00000000      -0.03305900      -0.06268600
Pt       4.20900000       7.29020000      10.00000000       0.00000000       0.03384000      -0.03029500
Pt       2.80600000       4.86013000      10.00000000       0.00000000      -0.04215100      -0.07269600
Pt       1.40300000       2.43007000      10.00000000       0.00000000       0.00914300      -0.13410800
Pt       2.80600000       1.62004000      14.58218000      -0.00000000       0.05009900      -0.28366500
Pt       4.20900000       4.05011000      14.58218000       0.00000000       0.07820300      -0.69665900
20
Lattice="2.805997698 0.0 0.0 5.611995395 9.720261156 0.0 0.0 0.0 29.428262579" Properties=species:S:1:pos:R:3:forces:R:3 energy=-124.16030822 pbc="T T T"
C        7.01499000       8.91024000      18.27026000      -0.00000000       1.14468000      -2.34886300
C        5.61200000       6.48017000      18.27026000       0.00000000      -1.23953700      -2.51578600
O        5.61200000       6.48017000      19.42826000       0.00000000      -0.19061200       2.50375600
O        7.01499000       8.91024000      19.42826000      -0.00000000       0.11931400       2.49041500
Pt       4.20900000       7.29020000      16.87326000      -0.00000000      -0.23140900       0.50728800
Pt       2.80600000       4.86013000      16.87326000       0.00000000      -0.36650100       0.62295300
Pt       1.40300000       2.43007000      16.87326000      -0.00000000       0.29088500      -0.22067300
Pt       0.00000000       0.00000000      16.87326000      -0.00000000       0.52411900       0.83290200
Pt       7.01499000       8.91024000      14.58218000      -0.00000000      -0.03439300      -0.67784300
Pt       5.61200000       6.48017000      14.58218000       0.00000000       0.06716400      -0.68113400
Pt       0.00000000       0.00000000      10.00000000      -0.00000000       0.01948000      -0.02309900
Pt       5.61200000       8.10022000      12.29109000      -0.00000000      -0.05287000       0.14592000
Pt       4.20900000       5.67015000      12.29109000      -0.00000000      -0.07767500       0.07063800
Pt       2.80600000       3.24009000      12.29109000      -0.00000000       0.03626100      -0.00917100
Pt       1.40300000       0.81002000      12.29109000      -0.00000000       0.07420800       0.17747700
Pt       4.20900000       7.29020000      10.00000000      -0.00000000      -0.04829700      -0.09999000
Pt       2.80600000       4.86013000      10.00000000      -0.00000000       0.03102000      -0.15093600
Pt       1.40300000       2.43007000      10.00000000      -0.00000000       0.03952200      -0.09862300
Pt       2.80600000       1.62004000      14.58218000      -0.00000000      -0.04867200      -0.21936800
Pt       4.20900000       4.05011000      14.58218000       0.00000000      -0.05668600      -0.30586400
20
Lattice="2.805997698 0.0 0.0 5.611995395 9.720261156 0.0 0.0 0.0 29.428262579" Properties=species:S:1:pos:R:3:forces:R:3 energy=-124.77940556 pbc="T T T"
C        2.80600000       1.62004000      18.27026000      -0.00000000      -0.13042500      -2.75862400
C        5.61200000       6.48017000      18.27026000      -0.00000000      -0.13042500      -2.75862400
O        5.61200000       6.48017000      19.42826000      -0.00000000      -0.05705400       2.67814400
O        2.80600000       1.62004000      19.42826000      -0.00000000      -0.05705400       2.67814400