14
Lattice="2.805997698 0.0 0.0 4.208996546 7.290195867 0.0 0.0 0.0 29.886262579" Properties=species:S:1:pos:R:3:forces:R:3 energy=-85.5154508 pbc="T T T"
C        2.80600000       4.86013000      18.72826000      -0.00000000       0.00782600      -0.04315300
O        2.80600000       4.86013000      19.88626000      -0.00000000      -0.00459700       0.08883400
Pt       0.00000000       0.00000000      10.00000000      -0.00000000       0.03329800      -0.01357200
Pt       1.40300000       2.43007000      10.00000000      -0.00000000       0.03814500      -0.18746700
Pt       2.80600000       4.86013000      10.00000000      -0.00000000      -0.01750300      -0.02225000
Pt       1.40300000       0.81002000      12.29109000      -0.00000000       0.11936600       0.09124500
Pt       2.80600000       3.24009000      12.29109000      -0.00000000      -0.08317500       0.01493300
Pt       4.20900000       5.67015000      12.29109000      -0.00000000      -0.03935600       0.24842900
Pt       2.80600000       1.62004000      14.58218000      -0.00000000      -0.06112500      -0.25650000
Pt       4.20900000       4.05011000      14.58218000      -0.00000000       0.11593900      -0.23857600
Pt       5.61200000       6.48017000      14.58218000      -0.00000000      -0.11866000      -0.10007100
Pt       0.00000000       0.00000000      16.87326000      -0.00000000       0.71572100      -0.19835200
Pt       1.40300000       2.43007000      16.87326000       0.00000000      -0.74249500      -0.15077600
Pt       2.80600000       4.86013000      16.87326000      -0.00000000       0.03661600       0.76727500
14
Lattice="2.805997698 0.0 0.0 4.208996546 7.290195867 0.0 0.0 0.0 29.428262579" Properties=species:S:1:pos:R:3:forces:R:3 energy=-85.58521594 pbc="T T T"
C        1.40300000       0.81002000      18.27026000       0.00000000       0.14795500      -2.91462400
O        1.40300000       0.81002000      19.42826000       0.00000000       0.04896000       2.75446800
Pt       0.00000000       0.00000000      10.00000000       0.00000000       0.01542200      -0.06828700
Pt       1.40300000       2.43007000      10.00000000      -0.00000000       0.01707800      -0.04070700
Pt       2.80600000       4.86013000      10.00000000       0.00000000       0.01172200      -0.08806400
Pt       1.40300000       0.81002000      12.29109000       0.00000000      -0.03234600       0.20692900
Pt       2.80600000       3.24009000      12.29109000      -0.00000000       0.10850300       0.15692100
Pt       4.20900000       5.67015000      12.29109000      -0.00000000      -0.03000400      -0.06627600
Pt       2.80600000       1.62004000      14.58218000       0.00000000       0.10620300      -0.66197600
Pt       4.20900000       4.05011000      14.58218000      -0.00000000      -0.12708200      -0.13841900
Pt       5.61200000       6.48017000      14.58218000       0.00000000       0.01361300      -0.28307600
Pt       0.00000000       0.00000000      16.87326000      -0.00000000      -0.44051300       0.82465500
Pt       1.40300000       2.43007000      16.87326000       0.00000000       0.51495500       0.49841400
Pt       2.80600000       4.86013000      16.87326000       0.00000000      -0.35446600      -0.17995900
14
Lattice="2.805997698 0.0 0.0 4.208996546 7.290195867 0.0 0.0 0.0 29.657262579" Properties=species:S:1:pos:R:3:forces:R:3 energy=-85.32743031 pbc="T T T"
C        2.80600000       2.43007000      18.49926000      -0.00000000       0.08800000      -2.95602700
O        2.80600000       2.43007000      19.65726000      -0.00000000      -0.02591200       1.24391800
Pt       0.00000000       0.00000000      10.00000000      -0.00000000       0.03944900      -0.12326000
Pt       1.40300000       2.43007000      10.00000000       0.00000000      -0.01924200      -0.00483100
Pt       2.80600000       4.86013000      10.00000000      -0.00000000       0.02489800      -0.00348000
Pt       1.40300000       0.81002000      12.29109000       0.00000000      -0.07890900       0.04811700
Pt       2.80600000       3.24009000      12.29109000       0.00000000      -0.02730000       0.24785300
Pt       4.20900000       5.67015000      12.29109000      -0.00000000       0.09136900       0.08498800
Pt       2.80600000       1.62004000      14.58218000      -0.00000000       0.14472200      -0.29232300
Pt       4.20900000       4.05011000      14.58218000      -0.00000000       0.00588200      -0.34506400
Pt       5.61200000       6.48017000      14.58218000       0.00000000      -0.05334200      -0.24516800
Pt       0.00000000       0.00000000      16.87326000      -0.00000000      -0.76906400      -0.07516500
Pt       1.40300000       2.43007000      16.87326000      -0.00000000      -0.21388800       2.55585000
Pt       2.80600000       4.86013000      16.87326000       0.00000000       0.79333500      -0.13540900
14
Lattice="2.805997698 0.0 0.0 4.208996546 7.290195867 0.0 0.0 0.0 29.428262579" Properties=species:S:1:pos:R:3:forces:R:3 energy=-85.5313171 pbc="T T T"
C        4.20900000       4.05011000      18.27026000       0.00000000      -0.13374900      -2.89006500
O        4.20900000       4.05011000      19.42826000       0.00000000      -0.05604300       2.72352000
Pt       0.00000000       0.00000000      10.00000000      -0.00000000       0.00440300      -0.05185900
Pt       1.40300000       2.43007000      10.00000000      -0.00000000       0.03966600      -0.09020000
Pt       2.80600000       4.86013000      10.00000000      -0.00000000       0.00692800      -0.03617700
Pt       1.40300000       0.81002000      12.29109000       0.00000000       0.03091700      -0.00549800
Pt       2.80600000       3.24009000      12.29109000      -0.00000000      -0.04739600       0.09689800
Pt       4.20900000       5.67015000      12.29109000      -0.00000000      -0.00954000       0.22732700
Pt       2.80600000       1.62004000      14.58218000      -0.00000000      -0.05984800      -0.29161800
Pt       4.20900000       4.05011000      14.58218000       0.00000000       0.04325200      -0.68767400
Pt       5.61200000       6.48017000      14.58218000       0.00000000      -0.04879100      -0.18443200
Pt       0.00000000       0.00000000      16.87326000      -0.00000000       0.32486800      -0.17135200
Pt       1.40300000       2.43007000      16.87326000       0.00000000      -0.41823100       0.57581700
Pt       2.80600000       4.86013000      16.87326000      -0.00000000       0.32356400       0.78531300
