54
Lattice="8.418 0.0 0.0 -4.209 7.290201849 0.0 0.0 0.0 25.62094" Properties=species:S:1:pos:R:3:forces:R:3 energy=-347.87461567 pbc="T T T"
C        2.78473000       6.51886000      16.44114000      -0.00883100      -0.02225100       0.10267600
C        1.38173000       4.08880000      16.44112000      -0.00887500      -0.02225600       0.10107300
C       -0.02127000       6.51887000      16.44115000      -0.00885500      -0.02224300       0.10183600
C        2.78473000       1.65873000      16.44111000      -0.00883400      -0.02225800       0.10442900
C       -2.82727000       6.51887000      16.44112000      -0.00885500      -0.02230300       0.10346700
C       -1.42427000       4.08880000      16.44112000      -0.00883600      -0.02223900       0.10108700
C        4.18773000       4.08879000      16.44113000      -0.00882100      -0.02216300       0.10104600
C        5.59074000       1.65873000      16.44112000      -0.00892400      -0.02229200       0.10524600
C       -0.02127000       1.65873000      16.44111000      -0.00880800      -0.02232900       0.10535000
O        5.58778000       1.65333000      17.62094000      -0.00624500       0.02269100      -0.04706000
O       -0.02421000       1.65331000      17.62093000      -0.00629000       0.02273500      -0.04697700
O       -2.83019000       6.51346000      17.62092000      -0.00630500       0.02259000      -0.04537300
O        2.78179000       6.51345000      17.62093000      -0.00623200       0.02259000      -0.04448300
O        2.78179000       1.65332000      17.62092000      -0.00628100       0.02265200      -0.04616600
O        1.37878000       4.08337000      17.62089000      -0.00624600       0.02263500      -0.04263800
O       -1.42721000       4.08337000      17.62089000      -0.00631800       0.02264600      -0.04264300
O        4.18478000       4.08340000      17.62090000      -0.00628100       0.02261400      -0.04268800
O       -0.02421000       6.51345000      17.62093000      -0.00626400       0.02256700      -0.04365300
Pt      -1.40105000       2.42943000       8.00001000       0.00224800      -0.00189900      -0.08428100
Pt      -0.00772000       3.24594000      10.30804000      -0.00215600       0.00272600       0.01709700
Pt      -1.42033000       4.06458000      12.60665000      -0.00599700       0.01544100       0.03322700
Pt       6.98248000       2.46872000      15.03871000       0.02093100      -0.01645400      -0.02429200
Pt      -2.80402000       4.85950000       8.00006000       0.00216200      -0.00193200      -0.08437100
Pt       1.39529000       5.67600000      10.30804000      -0.00215900       0.00276600       0.01715400
Pt      -1.41070000       5.67601000      10.30806000      -0.00219200       0.00275900       0.01713200
Pt      -1.40104000       7.28958000       8.00003000       0.00225100      -0.00190700      -0.08433500
Pt       4.20129000       0.81587000      10.30804000      -0.00217100       0.00277000       0.01711000
Pt       2.78867000       1.63452000      12.60664000      -0.00601600       0.01541800       0.03321300
Pt       2.77353000       0.03869000      15.03872000       0.02095700      -0.01676700      -0.02421600
Pt       1.40495000       2.42945000       8.00001000       0.00223100      -0.00190600      -0.08431800
Pt       2.79828000       3.24595000      10.30804000      -0.00210200       0.00269200       0.01706000
Pt       1.37047000       2.46872000      15.03871000       0.02118300      -0.01654400      -0.02432500
Pt       8.38549000       0.03871000      15.03873000       0.02128100      -0.01726700      -0.02422500
Pt       5.57948000       4.89881000      15.03872000       0.02094200      -0.01636800      -0.02426500
Pt      -0.01734000       1.63450000      12.60665000      -0.00601700       0.01551700       0.03318100
Pt       4.21094000       2.42945000       8.00001000       0.00227300      -0.00189700      -0.08429800
Pt       0.00196000       4.85951000       8.00000000       0.00223200      -0.00193700      -0.08431400
Pt       2.77343000       4.89883000      15.03872000       0.02122500      -0.01646300      -0.02429600
Pt       2.78867000       6.49465000      12.60666000      -0.00607200       0.01542600       0.03323300
Pt       1.40495000       7.28957000       8.00002000       0.00226700      -0.00188200      -0.08434000
Pt       4.20128000       5.67600000      10.30806000      -0.00210000       0.00275200       0.01715700
Pt       5.57949000       0.03871000      15.03875000       0.02097000      -0.01674400      -0.02428500
Pt       5.59466000       1.63452000      12.60664000      -0.00605200       0.01541500       0.03325300
Pt       2.80795000       4.85951000       8.00000000       0.00227300      -0.00191300      -0.08428000
Pt      -0.03254000       4.89880000      15.03873000       0.02111600      -0.01662200      -0.02437100
Pt      -2.82332000       6.49465000      12.60666000      -0.00603900       0.01544000       0.03328300
Pt       5.60429000       3.24593000      10.30805000      -0.00220500       0.00277400       0.01706300
Pt       4.19167000       4.06459000      12.60665000      -0.00605900       0.01547900       0.03321900
Pt       4.17646000       2.46880000      15.03872000       0.02114900      -0.01674800      -0.02429300
Pt       7.00728000       0.81587000      10.30805000      -0.00215900       0.00273200       0.01712900
Pt      -0.01732000       6.49465000      12.60666000      -0.00600600       0.01542000       0.03320400
Pt      -4.20702000       7.28957000       8.00008000       0.00214800      -0.00190500      -0.08444900
Pt       1.39529000       0.81588000      10.30806000      -0.00213500       0.00273500       0.01714900
Pt       1.38567000       4.06457000      12.60665000      -0.00609600       0.01550700       0.03316100
54
Lattice="8.418 0.0 0.0 -4.209 7.290201849 0.0 0.0 0.0 25.62325" Properties=species:S:1:pos:R:3:forces:R:3 energy=-347.94343249 pbc="T T T"
C        2.78446000       6.51801000      16.44391000      -0.01213700      -0.01524400       0.01508300
C        1.38145000       4.08795000      16.44384000      -0.01210800      -0.01522400       0.02369100
C       -0.02154000       6.51802000      16.44390000      -0.01214400      -0.01521800       0.01847000
C        2.78446000       1.65788000      16.44392000      -0.01208400      -0.01511900       0.01165200
C       -2.82754000       6.51802000      16.44390000      -0.01209900      -0.01524800       0.01504000
C       -1.42454000       4.08795000      16.44385000      -0.01218200      -0.01517900       0.02197300
C        4.18746000       4.08795000      16.44385000      -0.01216600      -0.01517400       0.02198800
C        5.59047000       1.65788000      16.44395000      -0.01216800      -0.01512300       0.00907400
C       -0.02154000       1.65788000      16.44394000      -0.01205500      -0.01515400       0.00910100
O        5.58769000       1.65409000      17.62319000      -0.00581000       0.01602800       0.01988500
O       -0.02430000       1.65407000      17.62318000      -0.00589300       0.01605300       0.01995500
O       -2.83028000       6.51422000      17.62321000      -0.00588900       0.01610100       0.01381600
O        2.78170000       6.51420000      17.62322000      -0.00578100       0.01617400       0.01388500
O        2.78170000       1.65407000      17.62319000      -0.00584800       0.01604800       0.01731600
O        1.37869000       4.08412000      17.62325000      -0.00587700       0.01607200       0.00515900
O       -1.42731000       4.08413000      17.62324000      -0.00581300       0.01603100       0.00697300
O        4.18469000       4.08416000      17.62324000      -0.00580900       0.01603600       0.00700800
O       -0.02430000       6.51420000      17.62325000      -0.00586800       0.01610400       0.01027900
Pt      -1.40099000       2.42943000       8.00001000      -0.00125800       0.00009600      -0.07260000
Pt      -0.00775000       3.24599000      10.31023000       0.00174100       0.00169000      -0.01710100
Pt      -1.42040000       4.06470000      12.60965000      -0.00446600       0.01437500       0.03669000
Pt       6.98288000       2.46864000      15.04201000       0.02190000      -0.01682200       0.02403200
Pt      -2.80396000       4.85950000       8.00006000      -0.00136700       0.00012100      -0.07266500
Pt       1.39526000       5.67605000      10.31023000       0.00171500       0.00170200      -0.01704100
Pt      -1.41073000       5.67606000      10.31025000       0.00169500       0.00170400      -0.01706800
Pt      -1.40098000       7.28958000       8.00003000      -0.00130400       0.00008500      -0.07255000
Pt       4.20126000       0.81592000      10.31023000       0.00170100       0.00169200      -0.01706500
Pt       2.78860000       1.63464000      12.60964000      -0.00443500       0.01437500       0.03673400
Pt       2.77394000       0.03861000      15.04202000       0.02186200      -0.01710300       0.02403300
Pt       1.40501000       2.42945000       8.00002000      -0.00130100       0.00004600      -0.07261200
Pt       2.79825000       3.24599000      10.31022000       0.00178700       0.00168700      -0.01699000
Pt       1.37088000       2.46864000      15.04201000       0.02205100      -0.01689800       0.02400200
Pt       8.38590000       0.03862000      15.04203000       0.02214300      -0.01743200       0.02397900
Pt       5.57989000       4.89874000      15.04202000       0.02190400      -0.01682500       0.02399200
Pt      -0.01741000       1.63463000      12.60964000      -0.00446600       0.01437500       0.03674600
Pt       4.21101000       2.42945000       8.00002000      -0.00130000       0.00005700      -0.07262300
Pt       0.00202000       4.85951000       8.00000000      -0.00130600       0.00007200      -0.07252900
Pt       2.77384000       4.89876000      15.04202000       0.02210700      -0.01694700       0.02397000
Pt       2.78859000       6.49478000      12.60966000      -0.00441400       0.01435600       0.03672800
Pt       1.40501000       7.28957000       8.00002000      -0.00128600       0.00008900      -0.07260300
Pt       4.20125000       5.67605000      10.31025000       0.00179400       0.00171700      -0.01702300
Pt       5.57989000       0.03863000      15.04205000       0.02191800      -0.01707900       0.02397600
Pt       5.59458000       1.63464000      12.60964000      -0.00440000       0.01435900       0.03676200
Pt       2.80801000       4.85951000       8.00001000      -0.00125400       0.00009300      -0.07257300
Pt      -0.03213000       4.89872000      15.04202000       0.02202900      -0.01704900       0.02405000
Pt      -2.82339000       6.49478000      12.60966000      -0.00448000       0.01432400       0.03676700
Pt       5.60426000       3.24598000      10.31023000       0.00168200       0.00172900      -0.01699600
Pt       4.19160000       4.06472000      12.60965000      -0.00448900       0.01436600       0.03666200
Pt       4.17687000       2.46872000      15.04202000       0.02199500      -0.01704300       0.02399000
Pt       7.00725000       0.81592000      10.31023000       0.00173300       0.00167900      -0.01700200
Pt      -0.01739000       6.49477000      12.60966000      -0.00446000       0.01434300       0.03670200
Pt      -4.20697000       7.28957000       8.00007000      -0.00132100       0.00008000      -0.07267300
Pt       1.39526000       0.81593000      10.31025000       0.00173900       0.00164700      -0.01709400
Pt       1.38560000       4.06470000      12.60965000      -0.00445800       0.01437200       0.03664400
54
Lattice="8.418 0.0 0.0 -4.209 7.290201849 0.0 0.0 0.0 25.62057" Properties=species:S:1:pos:R:3:forces:R:3 energy=-347.86997672 pbc="T T T"
C        2.78488000       6.51953000      16.43927000      -0.00795900      -0.02736500       0.20665600
C        1.38187000       4.08947000      16.43927000      -0.00791600      -0.02738900       0.20253300
C       -0.02112000       6.51954000      16.43928000      -0.00800800      -0.02736500       0.20583300
C        2.78488000       1.65940000      16.43923000      -0.00799900      -0.02740800       0.21008600
C       -2.82712000       6.51954000      16.43925000      -0.00798100      -0.02742500       0.20831600
C       -1.42412000       4.08947000      16.43926000      -0.00800600      -0.02739400       0.20425200
C        4.18788000       4.08947000      16.43927000      -0.00795500      -0.02737700       0.20421100
C        5.59088000       1.65940000      16.43924000      -0.00796400      -0.02744800       0.21170900
C       -0.02112000       1.65940000      16.43922000      -0.00797100      -0.02749800       0.21183900
O        5.58781000       1.65274000      17.62057000      -0.00505500       0.02703500      -0.21021500
O       -0.02418000       1.65272000      17.62055000      -0.00507200       0.02707500      -0.21008400
O       -2.83016000       6.51287000      17.62054000      -0.00507700       0.02691900      -0.20680400
O        2.78182000       6.51286000      17.62054000      -0.00503300       0.02690200      -0.20508800
O        2.78181000       1.65273000      17.62054000      -0.00500800       0.02701400      -0.20847900
O        1.37881000       4.08278000      17.62049000      -0.00506000       0.02697500      -0.20074100
O       -1.42719000       4.08278000      17.62050000      -0.00502300       0.02697300      -0.20242800
O        4.18481000       4.08281000      17.62051000      -0.00509000       0.02696400      -0.20248000
O       -0.02419000       6.51286000      17.62054000      -0.00499200       0.02687000      -0.20422200
Pt      -1.40111000       2.42945000       8.00001000       0.00273700      -0.00220800      -0.10653000
Pt      -0.00771000       3.24590000      10.30465000      -0.00341800       0.00281000       0.05677600
Pt      -1.42028000       4.06444000      12.60529000      -0.00501100       0.01611700       0.00555900
Pt       6.98231000       2.46880000      15.03323000       0.01855300      -0.01616000       0.04252700
Pt      -2.80407000       4.85952000       8.00006000       0.00259400      -0.00222000      -0.10658000
Pt       1.39530000       5.67596000      10.30466000      -0.00342800       0.00282400       0.05678600
Pt      -1.41069000       5.67597000      10.30468000      -0.00348100       0.00280100       0.05678700
Pt      -1.40109000       7.28960000       8.00003000       0.00266600      -0.00224900      -0.10657000
Pt       4.20129000       0.81583000      10.30465000      -0.00336100       0.00280800       0.05687000
Pt       2.78871000       1.63438000      12.60528000      -0.00492900       0.01617400       0.00555100
Pt       2.77336000       0.03877000      15.03324000       0.01858800      -0.01632900       0.04257800
Pt       1.40489000       2.42947000       8.00001000       0.00269400      -0.00222500      -0.10653000
Pt       2.79829000       3.24590000      10.30465000      -0.00338000       0.00286000       0.05680400
Pt       1.37029000       2.46880000      15.03323000       0.01889800      -0.01616400       0.04244700
Pt       8.38533000       0.03877000      15.03325000       0.01880700      -0.01672200       0.04257500
Pt       5.57931000       4.89889000      15.03325000       0.01863800      -0.01605300       0.04248000
Pt      -0.01730000       1.63437000      12.60528000      -0.00493500       0.01614600       0.00553100
Pt       4.21089000       2.42946000       8.00002000       0.00269500      -0.00215700      -0.10656000
Pt       0.00190000       4.85953000       8.00000000       0.00271000      -0.00224300      -0.10650300
Pt       2.77326000       4.89891000      15.03324000       0.01882600      -0.01612500       0.04252800
Pt       2.78871000       6.49452000      12.60530000      -0.00497000       0.01607800       0.00557000
Pt       1.40490000       7.28959000       8.00002000       0.00271300      -0.00224000      -0.10655800
Pt       4.20129000       5.67596000      10.30467000      -0.00338900       0.00281300       0.05686400
Pt       5.57931000       0.03879000      15.03327000       0.01875200      -0.01631900       0.04256900
Pt       5.59470000       1.63438000      12.60528000      -0.00498900       0.01612500       0.00554700
Pt       2.80789000       4.85953000       8.00000000       0.00274500      -0.00223900      -0.10646600
Pt      -0.03271000       4.89888000      15.03325000       0.01874700      -0.01624700       0.04250400
Pt      -2.82328000       6.49452000      12.60530000      -0.00497500       0.01606800       0.00560900
Pt       5.60430000       3.24589000      10.30466000      -0.00348800       0.00284900       0.05682400
Pt       4.19172000       4.06446000      12.60529000      -0.00503200       0.01610200       0.00551000
Pt       4.17629000       2.46888000      15.03324000       0.01875600      -0.01632200       0.04255200
Pt       7.00729000       0.81583000      10.30466000      -0.00344300       0.00279600       0.05684700
Pt      -0.01728000       6.49451000      12.60530000      -0.00493500       0.01613100       0.00554100
Pt      -4.20708000       7.28959000       8.00008000       0.00264600      -0.00223400      -0.10664100
Pt       1.39531000       0.81584000      10.30467000      -0.00350100       0.00277900       0.05682700
Pt       1.38571000       4.06444000      12.60529000      -0.00492900       0.01611700       0.00548100
54
Lattice="8.418 0.0 0.0 -4.209 7.290201849 0.0 0.0 0.0 25.62103" Properties=species:S:1:pos:R:3:forces:R:3 energy=-347.87477175 pbc="T T T"
C        2.78470000       6.51870000      16.44159000      -0.00907900      -0.02154900       0.07781100
C        1.38169000       4.08863000      16.44158000      -0.00908900      -0.02143800       0.07454500
C       -0.02130000       6.51871000      16.44160000      -0.00913600      -0.02153100       0.07613400
C        2.78470000       1.65857000      16.44157000      -0.00911800      -0.02153400       0.07869600
C       -2.82730000       6.51871000      16.44158000      -0.00911500      -0.02154200       0.07775300
C       -1.42431000       4.08864000      16.44158000      -0.00905800      -0.02148600       0.07536000
C        4.18770000       4.08863000      16.44158000      -0.00911500      -0.02141700       0.07536200
C        5.59070000       1.65857000      16.44158000      -0.00909700      -0.02152800       0.07869900
C       -0.02130000       1.65857000      16.44157000      -0.00911600      -0.02158300       0.07881800
O        5.58778000       1.65348000      17.62103000      -0.00672900       0.02113500      -0.00709600
O       -0.02422000       1.65346000      17.62102000      -0.00670100       0.02121200      -0.00699300
O       -2.83019000       6.51361000      17.62102000      -0.00675100       0.02108200      -0.00631200
O        2.78179000       6.51359000      17.62103000      -0.00670500       0.02112800      -0.00622600
O        2.78178000       1.65346000      17.62102000      -0.00668500       0.02116300      -0.00709100
O        1.37877000       4.08351000      17.62098000      -0.00667300       0.02111900      -0.00263500
O       -1.42722000       4.08352000      17.62099000      -0.00673800       0.02112000      -0.00353700
O        4.18478000       4.08354000      17.62099000      -0.00673300       0.02113700      -0.00353300
O       -0.02422000       6.51359000      17.62102000      -0.00665900       0.02111300      -0.00453000
Pt      -1.40104000       2.42943000       8.00001000       0.00202200      -0.00230400      -0.07913200
Pt      -0.00772000       3.24595000      10.30887000       0.00026500       0.00445400       0.00724000
Pt      -1.42034000       4.06461000      12.60699000      -0.00630800       0.01500700       0.04052300
Pt       6.98252000       2.46870000      15.04005000       0.01969200      -0.01637900      -0.04056700
Pt      -2.80401000       4.85950000       8.00006000       0.00191900      -0.00234700      -0.07919000
Pt       1.39529000       5.67602000      10.30887000       0.00026600       0.00441100       0.00730300
Pt      -1.41070000       5.67602000      10.30889000       0.00021900       0.00441900       0.00730000
Pt      -1.40102000       7.28958000       8.00003000       0.00196000      -0.00234600      -0.07915500
Pt       4.20128000       0.81588000      10.30887000       0.00029800       0.00445400       0.00731000
Pt       2.78866000       1.63455000      12.60698000      -0.00629200       0.01503100       0.04053600
Pt       2.77357000       0.03867000      15.04005000       0.01970000      -0.01670000      -0.04040000
Pt       1.40496000       2.42945000       8.00001000       0.00199200      -0.00235100      -0.07913500
Pt       2.79828000       3.24596000      10.30887000       0.00028400       0.00441100       0.00725300
Pt       1.37051000       2.46870000      15.04005000       0.01995200      -0.01651500      -0.04058400
Pt       8.38553000       0.03869000      15.04007000       0.02004700      -0.01722200      -0.04045700
Pt       5.57953000       4.89879000      15.04006000       0.01967600      -0.01628100      -0.04049900
Pt      -0.01735000       1.63454000      12.60698000      -0.00629900       0.01503400       0.04053800
Pt       4.21096000       2.42944000       8.00002000       0.00199000      -0.00229400      -0.07915900
Pt       0.00197000       4.85951000       8.00000000       0.00199500      -0.00237000      -0.07911900
Pt       2.77347000       4.89881000      15.04006000       0.02004800      -0.01639800      -0.04056400
Pt       2.78866000       6.49469000      12.60700000      -0.00632800       0.01496400       0.04053900
Pt       1.40497000       7.28957000       8.00002000       0.00200000      -0.00234800      -0.07917900
Pt       4.20128000       5.67601000      10.30889000       0.00032300       0.00445900       0.00731700
Pt       5.57953000       0.03869000      15.04008000       0.01973400      -0.01666900      -0.04043800
Pt       5.59465000       1.63455000      12.60698000      -0.00633900       0.01499300       0.04053600
Pt       2.80796000       4.85950000       8.00000000       0.00202800      -0.00232200      -0.07908900
Pt      -0.03249000       4.89878000      15.04007000       0.01981500      -0.01658100      -0.04063600
Pt      -2.82333000       6.49469000      12.60700000      -0.00632700       0.01493800       0.04060300
Pt       5.60428000       3.24594000      10.30888000       0.00027900       0.00446500       0.00726500
Pt       4.19166000       4.06463000      12.60699000      -0.00633600       0.01498200       0.04056100
Pt       4.17650000       2.46878000      15.04006000       0.02020300      -0.01769900      -0.03907800
Pt       7.00728000       0.81588000      10.30887000       0.00025100       0.00445300       0.00735600
Pt      -0.01733000       6.49468000      12.60700000      -0.00630100       0.01496800       0.04050400
Pt      -4.20701000       7.28957000       8.00008000       0.00193600      -0.00235100      -0.07927300
Pt       1.39529000       0.81589000      10.30889000       0.00027600       0.00442200       0.00727100
Pt       1.38566000       4.06461000      12.60699000      -0.00634500       0.01501300       0.04047000
54
Lattice="8.417993093 0.0 0.0 4.208996546 7.290195867 0.0 0.0 0.0 29.657262579" Properties=species:S:1:pos:R:3:forces:R:3 energy=-342.08697651 pbc="T T T"
C        2.80600000       3.24009000      18.27026000       0.87910300      -1.34010000      -2.31889400
C        4.20900000       5.67015000      18.27026000       0.98583300      -1.20495400      -2.58248000
C        5.61200000       3.24009000      18.27026000      -0.54496300      -1.76299800      -2.40468900
C        4.20900000       0.81002000      18.27026000       0.12839200      -0.85196000      -2.43995300
C        7.01499000       4.86013000      18.49926000      -0.27840400       3.89300800      -1.35094300
C        7.01499000       0.00000000      18.49926000      -1.91875400       2.16179900      -1.51849900
C        1.40300000       0.81002000      18.27026000       0.31634100      -0.34143300      -2.44724900
C        8.41799000       3.24009000      18.27026000      -0.31663100      -3.10192300      -2.55911400
C        9.82099000       4.86013000      18.49926000       0.11209400       3.50887300      -1.25111800
O        4.20900000       5.67015000      19.42826000       1.58456900      -1.73145500       2.47560600
O        1.40300000       0.81002000      19.42826000      -0.02634900      -0.11316600       2.51558100
O        2.80600000       3.24009000      19.42826000       1.54471800      -1.69604500       2.45418800
O        8.41799000       3.24009000      19.42826000      -0.04936100      -3.47609600       2.60020700
O        7.01499000       0.00000000      19.65726000      -1.07064800       1.54530700       0.67659400
O        4.20900000       0.81002000      19.42826000       0.02131300      -0.17036000       2.56026600
O        5.61200000       3.24009000      19.42826000      -1.50305600      -1.81333100       2.51291000
O        9.82099000       4.86013000      19.65726000      -0.09303900       2.66672900       0.48870000
O        7.01499000       4.86013000      19.65726000       0.03575800       2.75131200       0.47301000
Pt       0.00000000       0.00000000      16.87326000      -0.38237800       0.26695800       1.20612500
Pt       8.41799000       4.86013000      16.87326000      -0.05224000       0.59032500       1.80026900
Pt       5.61200000       4.86013000      16.87326000       0.44166500       0.28768400       1.29995200
Pt       2.80600000       4.86013000      16.87326000      -0.38404700      -0.06453300       0.94811200
Pt       7.01499000       2.43007000      16.87326000       0.02809000      -0.19935000       0.20852500
Pt       4.20900000       2.43007000      16.87326000       0.04887100      -0.06666200       0.59888800
Pt       1.40300000       2.43007000      16.87326000      -0.08465900      -0.57059100       0.31692200
Pt       5.61200000       0.00000000      16.87326000       0.56184600       0.19584300       1.29131400
Pt       2.80600000       0.00000000      16.87326000       0.03625400       0.27452400       0.57406000
Pt       0.00000000       0.00000000      10.00000000       0.00458200       0.01456800      -0.17859800
Pt      11.22399000       6.48017000      14.58218000      -0.01014600      -0.01659000      -0.60707400
Pt       2.80600000       0.00000000      10.00000000      -0.00936000      -0.01813200      -0.12456300
Pt       5.61200000       0.00000000      10.00000000       0.00156200       0.02869500      -0.19576700
Pt       1.40300000       2.43007000      10.00000000       0.02133100      -0.00313400      -0.20258200
Pt       4.20900000       2.43007000      10.00000000      -0.00585600      -0.01129400      -0.22403100
Pt       7.01499000       2.43007000      10.00000000      -0.01224800      -0.01106000      -0.19747900
Pt       2.80600000       4.86013000      10.00000000       0.00377900      -0.04454200      -0.12942700
Pt       5.61200000       4.86013000      10.00000000       0.00041500      -0.01550500      -0.17571000
Pt       8.41799000       4.86013000      10.00000000      -0.01110500       0.01572300      -0.20980900
Pt       1.40300000       0.81002000      12.29109000      -0.03855700      -0.01577000       0.07318000
Pt       4.20900000       0.81002000      12.29109000       0.04323700      -0.03675300       0.12139000
Pt       7.01499000       0.81002000      12.29109000      -0.00372400      -0.06757200       0.09770800
Pt       2.80600000       3.24009000      12.29109000      -0.02318700      -0.05760800       0.13142800
Pt       5.61200000       3.24009000      12.29109000       0.01390700      -0.01621000       0.12781900
Pt       8.41799000       3.24009000      12.29109000       0.00167100       0.00453800       0.06232600
Pt       4.20900000       5.67015000      12.29109000      -0.00346600       0.03789700       0.03576000
Pt       7.01499000       5.67015000      12.29109000       0.01542500      -0.06470000       0.12554500
Pt       9.82099000       5.67015000      12.29109000      -0.00487200       0.01893800       0.03014300
Pt       8.41799000       1.62004000      14.58218000      -0.01486900      -0.04823200      -0.46363600
Pt       2.80600000       1.62004000      14.58218000       0.00545300       0.19098200      -0.82801200
Pt       5.61200000       1.62004000      14.58218000       0.01299300       0.11983900      -0.63632700
Pt       9.82099000       4.05011000      14.58218000      -0.00221000       0.06163100      -0.65305700
Pt       4.20900000       4.05011000      14.58218000      -0.00289100       0.15523100      -0.55599700
Pt       7.01499000       4.05011000      14.58218000      -0.00335400       0.19321700      -0.81477300
Pt       5.61200000       6.48017000      14.58218000      -0.00605100       0.01341000      -0.47796700
Pt       8.41799000       6.48017000      14.58218000       0.00722200      -0.06497300      -0.25878200
54
Lattice="8.417993093 0.0 0.0 4.208996546 7.290195867 0.0 0.0 0.0 29.657262579" Properties=species:S:1:pos:R:3:forces:R:3 energy=-342.08337347 pbc="T T T"
C        2.80600000       3.24009000      18.27026000       0.50597300      -1.79969600      -2.40233400
C        7.01499000       5.67015000      18.27026000       0.96502100      -1.23426400      -2.49398700
C        8.41799000       3.24009000      18.27026000      -0.89247200      -2.22022900      -2.55057200
C        4.20900000       5.67015000      18.27026000       0.01503700      -2.63356600      -2.54654000
C        1.40300000       0.00000000      18.49926000       0.27134100       3.89432000      -1.29393700
C        5.61200000       3.24009000      18.27026000       0.39546400      -0.44319100      -2.26805000
C        7.01499000       0.00000000      18.49926000      -2.16664800       2.29326100      -1.63322700