80
Lattice="11.223990791 0.0 0.0 5.611995395 9.720261156 0.0 0.0 0.0 29.886262579" Properties=species:S:1:pos:R:3:forces:R:3 energy=-497.88806233 pbc="T T T"
C        2.80600000       1.62004000      18.27026000      -1.51955600       2.52509500      -2.89469600
C        5.61200000       2.43007000      18.49926000       0.74250600       0.60132000      -2.73655800
C        7.01499000       8.91024000      18.27026000      -1.01093100      -0.59056200      -2.85663000
C       14.02999000       6.48017000      18.27026000       0.01086000      -0.16178600      -3.42379300
C        8.41799000       0.00000000      18.72826000       0.08147800       0.15113700       0.44791300
C        9.82099000       4.86013000      18.49926000       0.57030100      -0.10197600      -2.72662900
C        4.20900000       0.00000000      18.49926000       2.55573300      -2.37220700      -2.15457200
C        7.01499000       5.67015000      18.27026000      -0.43474000       0.03634100      -3.02967100
O        5.61200000       2.43007000      19.65726000       0.06198600       0.05118100       1.30837700
O        8.41799000       0.00000000      19.88626000      -0.02548900      -0.01222900      -0.27596100
O        2.80600000       1.62004000      19.42826000      -1.70485400       1.82191200       2.68812400
O        4.20900000       0.00000000      19.65726000       1.05506000      -1.49989000       0.96914500
O        9.82099000       4.86013000      19.65726000       0.00546000      -0.00819000       1.30685500
O       14.02999000       6.48017000      19.42826000       0.00419600       0.01158900       3.14097200
O        7.01499000       8.91024000      19.42826000      -0.08995500      -0.00055500       2.82358600
O        7.01499000       5.67015000      19.42826000      -0.10184000      -0.04384200       2.94681800
Pt       5.61200000       6.48017000      14.58218000      -0.11340000       0.05826400      -0.46319300
Pt       8.41799000       6.48017000      14.58218000      -0.01277700       0.01102900      -0.42808600
Pt      11.22399000       6.48017000      14.58218000       0.05666100       0.04462400      -0.33135600
Pt      15.43299000       8.91024000      14.58218000      -0.12198600       0.03642400      -0.29414900
Pt       7.01499000       8.91024000      14.58218000       0.17836600      -0.00452400      -0.36324700
Pt       9.82099000       8.91024000      14.58218000      -0.07949400      -0.05409500      -0.50325100
Pt      12.62699000       8.91024000      14.58218000      -0.00761400       0.19347100      -0.01542600
Pt       0.00000000       0.00000000      16.87326000       0.06314700      -0.04019100       0.39655800
Pt       2.80600000       0.00000000      16.87326000       0.27886000      -0.58058900       1.25167800
Pt       5.61200000       0.00000000      16.87326000      -0.65470900      -0.70908000       1.07301200
Pt       8.41799000       0.00000000      16.87326000       0.08409900       0.21805600       0.79372800
Pt       4.20900000       2.43007000      16.87326000       0.36169300       0.61921700       1.27110200
Pt       7.01499000       2.43007000      16.87326000      -0.53700200      -0.15100700       1.06551100
Pt       9.82099000       2.43007000      16.87326000       0.20141600      -0.15210900      -0.31995400
Pt       2.80600000       4.86013000      16.87326000      -0.11058000       0.23380500       0.31637600
Pt       5.61200000       4.86013000      16.87326000       0.06912900       0.23955000       0.37004000
Pt       8.41799000       4.86013000      16.87326000       0.65319400      -0.21070700       1.47775400
Pt      14.02999000       6.48017000      14.58218000       0.00111800       0.00435700      -0.60372300
Pt       4.20900000       7.29020000      16.87326000      -0.25662700      -0.24168700       0.26739100
Pt       7.01499000       7.29020000      16.87326000      -0.17135800       0.11693700       0.63705400
Pt       9.82099000       7.29020000      16.87326000       0.56009400      -0.00019700      -0.36917600
Pt      12.62699000       7.29020000      16.87326000      -0.13433500      -0.22848100       0.40526700
Pt       1.40300000       2.43007000      16.87326000      -0.03418300       0.24158100       0.54546400
Pt      11.22399000       4.86013000      16.87326000      -0.57889100      -0.21454400       1.10988000
Pt       0.00000000       0.00000000      10.00000000       0.01979900      -0.04660000      -0.14247900
Pt       4.20900000       4.05011000      14.58218000       0.07803600       0.00505700      -0.24253700
Pt       1.40300000       0.81002000      12.29109000      -0.07835200       0.07698200       0.05922000
Pt      12.62699000       7.29020000      10.00000000       0.03868200      -0.00175500      -0.11859900
Pt       9.82099000       7.29020000      10.00000000      -0.04640700      -0.04386300      -0.09557500
Pt       7.01499000       7.29020000      10.00000000       0.00240900       0.00614400      -0.14000400
Pt       4.20900000       7.29020000      10.00000000       0.00970300       0.00443700      -0.18390600
Pt      11.22399000       4.86013000      10.00000000       0.02194000       0.01487200      -0.12436500
Pt       8.41799000       4.86013000      10.00000000       0.01706900       0.00881400      -0.16156400
Pt       4.20900000       0.81002000      12.29109000      -0.03603300       0.00404700       0.24053800
Pt       5.61200000       4.86013000      10.00000000      -0.00186500       0.02402700      -0.08739400
Pt       9.82099000       2.43007000      10.00000000      -0.02481900       0.01971900      -0.05795100
Pt       7.01499000       2.43007000      10.00000000       0.03782000       0.03052300      -0.06910600
Pt       4.20900000       2.43007000      10.00000000      -0.01211900      -0.04968800      -0.15344400
Pt       1.40300000       2.43007000      10.00000000       0.00889200      -0.01811900      -0.14598200
Pt       8.41799000       0.00000000      10.00000000       0.00875800      -0.05735200      -0.12362700
Pt       5.61200000       0.00000000      10.00000000      -0.01694400       0.01451900      -0.06879800
Pt       2.80600000       0.00000000      10.00000000       0.00628000       0.02069500      -0.10855800
Pt       2.80600000       4.86013000      10.00000000      -0.01613500       0.02052000      -0.10450000
Pt       7.01499000       4.05011000      14.58218000       0.20354400       0.03808000      -0.35625100
Pt       7.01499000       0.81002000      12.29109000       0.05544300      -0.00548800       0.16958500
Pt       2.80600000       3.24009000      12.29109000      -0.02134700       0.00858500       0.04152600
Pt      12.62699000       4.05011000      14.58218000      -0.12033600       0.12452700      -0.10787200
Pt       8.41799000       1.62004000      14.58218000      -0.11531300       0.00071000       0.00023200
Pt       5.61200000       1.62004000      14.58218000       0.04182000      -0.01088400      -0.58758300
Pt       2.80600000       1.62004000      14.58218000       0.12953100       0.07739900      -0.55633400
Pt      11.22399000       1.62004000      14.58218000      -0.05054700       0.02349300      -0.21246600
Pt      14.02999000       8.10022000      12.29109000       0.03819700      -0.02314300       0.11042900
Pt      11.22399000       8.10022000      12.29109000       0.05175500      -0.05441500       0.05048100
Pt       9.82099000       0.81002000      12.29109000       0.06445800       0.00463400       0.08292600
Pt       8.41799000       8.10022000      12.29109000      -0.01607900       0.04584900       0.10733600
Pt      12.62699000       5.67015000      12.29109000      -0.05470500       0.00761200       0.15060500
Pt       9.82099000       5.67015000      12.29109000       0.00375500      -0.06148700       0.09760800
Pt       7.01499000       5.67015000      12.29109000       0.07954800       0.01810100       0.16620100
Pt       4.20900000       5.67015000      12.29109000      -0.03391700       0.01699300       0.01289600
Pt      11.22399000       3.24009000      12.29109000       0.09684900      -0.04819500       0.02469100
Pt       8.41799000       3.24009000      12.29109000      -0.01113100       0.05130600       0.11135900
Pt       5.61200000       3.24009000      12.29109000      -0.07873000      -0.03184400       0.09530900
Pt       5.61200000       8.10022000      12.29109000      -0.04248100      -0.05582800       0.07455800
Pt       9.82099000       4.05011000      14.58218000      -0.13206800       0.00357700      -0.46913900
80
Lattice="11.223990791 0.0 0.0 5.611995395 9.720261156 0.0 0.0 0.0 29.657262579" Properties=species:S:1:pos:R:3:forces:R:3 energy=-494.99064046 pbc="T T T"
C        5.61200000       3.24009000      18.27026000       1.55218500      -1.90497800      -3.01726600
C        2.80600000       1.62004000      18.27026000       0.25953600      -0.38791900      -2.87838500
C        8.41799000       6.48017000      18.27026000      -1.35634200       1.98619800      -3.20548000
C        4.20900000       4.86013000      18.49926000       0.04443200       0.20309300      -1.79034900
C        9.82099000       4.86013000      18.49926000       1.86904200      -1.53119900      -2.32900700
C        9.82099000       0.00000000      18.49926000      -0.22992800      -0.32329600      -2.77405100
C       11.22399000       2.43007000      18.49926000      -0.05625600       0.24393700      -2.57553500
C       14.02999000       6.48017000      18.27026000      -1.45424200       1.87580000      -3.20824500
O        2.80600000       1.62004000      19.42826000       0.04729700      -0.05962800       2.87006900
O        9.82099000       4.86013000      19.65726000       1.10546900      -1.35017600       0.99012200
O        5.61200000       3.24009000      19.42826000       1.73878400      -1.85706300       2.81151700
O       11.22399000       2.43007000      19.65726000       0.09931100      -0.04778200       1.13079800
O        9.82099000       0.00000000      19.65726000      -0.05565100      -0.10982800       1.31464400
O        4.20900000       4.86013000      19.65726000      -0.01801100      -0.04530900       0.63217000
O        8.41799000       6.48017000      19.42826000      -1.65659700       1.84457900       2.87332300
O       14.02999000       6.48017000      19.42826000      -1.65686000       1.92665400       2.86152400
Pt       5.61200000       6.48017000      14.58218000      -0.00618600      -0.09962800      -0.13424500
Pt       8.41799000       6.48017000      14.58218000       0.00701000      -0.00313500      -0.77189000
Pt      11.22399000       6.48017000      14.58218000       0.02971400       0.08985500      -0.33278100
Pt      15.43299000       8.91024000      14.58218000       0.02473600      -0.12228200      -0.65934300
Pt       7.01499000       8.91024000      14.58218000      -0.13671500       0.12446400      -0.08475200
Pt       9.82099000       8.91024000      14.58218000       0.00481700      -0.07539900      -0.32268300
Pt      12.62699000       8.91024000      14.58218000       0.09586000       0.07497600      -0.08113900
Pt       0.00000000       0.00000000      16.87326000      -0.56782600      -0.71086600       1.02525500
Pt       2.80600000       0.00000000      16.87326000       0.13738900       0.02498100       0.43946900
Pt       5.61200000       0.00000000      16.87326000       0.25232400      -0.48350400      -0.26697900
Pt       8.41799000       0.00000000      16.87326000       0.24709100       0.11940000       1.15470000
Pt       4.20900000       2.43007000      16.87326000      -0.00552100      -0.61945100       0.49050400
Pt       7.01499000       2.43007000      16.87326000      -0.08906100      -0.18537900       0.61630900
Pt       9.82099000       2.43007000      16.87326000       0.33334100      -0.19869700       0.93980400
Pt       2.80600000       4.86013000      16.87326000       0.24695200      -0.12162300       1.30138100
Pt       5.61200000       4.86013000      16.87326000      -0.34091500       0.32955400       1.34210400
Pt       8.41799000       4.86013000      16.87326000       0.39213100      -0.35414200       1.26688600
Pt      14.02999000       6.48017000      14.58218000      -0.02447900       0.03918200      -0.75086500
Pt       4.20900000       7.29020000      16.87326000       0.02479500       0.16294500       0.34136800
Pt       7.01499000       7.29020000      16.87326000       0.15518100       0.16408600       0.48900700
Pt       9.82099000       7.29020000      16.87326000       0.09960600       0.56271900       0.46530700
Pt      12.62699000       7.29020000      16.87326000      -0.09074900       0.15939600       0.60389500
Pt       1.40300000       2.43007000      16.87326000      -0.47161700      -0.10845900       1.50777200
Pt      11.22399000       4.86013000      16.87326000      -0.63515300       0.20509700       1.16601600
Pt       0.00000000       0.00000000      10.00000000      -0.03058200       0.02547700      -0.18912000
Pt       4.20900000       4.05011000      14.58218000      -0.10053100      -0.09984900      -0.91194000
Pt       1.40300000       0.81002000      12.29109000      -0.09603000      -0.05980100       0.05042400
Pt      12.62699000       7.29020000      10.00000000       0.02452300       0.04424500      -0.09715400
Pt       9.82099000       7.29020000      10.00000000       0.00850400      -0.03912500      -0.15471100
Pt       7.01499000       7.29020000      10.00000000       0.00993200       0.02582000      -0.02212500
Pt       4.20900000       7.29020000      10.00000000      -0.04065700       0.02423800      -0.08448900
Pt      11.22399000       4.86013000      10.00000000      -0.04320300       0.01349800      -0.05904700
Pt       8.41799000       4.86013000      10.00000000       0.02283500      -0.00997100      -0.11184600
Pt       4.20900000       0.81002000      12.29109000       0.08877700       0.03480100       0.04847500
Pt       5.61200000       4.86013000      10.00000000      -0.01358700      -0.01873500      -0.04915700
Pt       9.82099000       2.43007000      10.00000000       0.00092300      -0.05422800      -0.17060100
Pt       7.01499000       2.43007000      10.00000000       0.00373300       0.02713400      -0.06717300
Pt       4.20900000       2.43007000      10.00000000      -0.01300400      -0.03750200      -0.18223500
Pt       1.40300000       2.43007000      10.00000000       0.02739600       0.01980200      -0.08740500
Pt       8.41799000       0.00000000      10.00000000       0.03134500      -0.01588100      -0.13870600
Pt       5.61200000       0.00000000      10.00000000      -0.01189500      -0.01675000      -0.14614800
Pt       2.80600000       0.00000000      10.00000000       0.01678000       0.01401900      -0.06696700
Pt       2.80600000       4.86013000      10.00000000       0.00972100      -0.03776400      -0.06901200
Pt       7.01499000       4.05011000      14.58218000       0.14579800       0.33197800      -0.06274200
Pt       7.01499000       0.81002000      12.29109000       0.01216400      -0.02189600       0.01200500
Pt       2.80600000       3.24009000      12.29109000       0.03387200      -0.07779900       0.16658100
Pt      12.62699000       4.05011000      14.58218000       0.09446300       0.24632700       0.11009200
Pt       8.41799000       1.62004000      14.58218000       0.03225700       0.17676800      -0.08845700
Pt       5.61200000       1.62004000      14.58218000      -0.04660300      -0.04444000      -0.50739500
Pt       2.80600000       1.62004000      14.58218000      -0.00126900       0.17061700      -0.38216800
Pt      11.22399000       1.62004000      14.58218000       0.01898000      -0.02969700      -0.70983700
Pt      14.02999000       8.10022000      12.29109000      -0.03591400       0.06759400       0.13034200
Pt      11.22399000       8.10022000      12.29109000      -0.04101000      -0.01910000       0.05726100
Pt       9.82099000       0.81002000      12.29109000       0.02076700       0.01347500       0.00643800
Pt       8.41799000       8.10022000      12.29109000       0.07035100       0.05786600       0.10127900
Pt      12.62699000       5.67015000      12.29109000       0.01596600      -0.00289100       0.11590300
Pt       9.82099000       5.67015000      12.29109000      -0.04346900       0.04506600       0.12277800
Pt       7.01499000       5.67015000      12.29109000       0.03431800      -0.04204000       0.13903100
Pt       4.20900000       5.67015000      12.29109000      -0.01948400       0.07131100       0.12198100
Pt      11.22399000       3.24009000      12.29109000       0.01541900      -0.05824200       0.09397000
Pt       8.41799000       3.24009000      12.29109000       0.06570500      -0.06236000       0.11429300
Pt       5.61200000       3.24009000      12.29109000      -0.04387300      -0.08128100       0.15122600
Pt       5.61200000       8.10022000      12.29109000      -0.01452800       0.06188000       0.10493200
Pt       9.82099000       4.05011000      14.58218000      -0.12378400      -0.07973300      -0.73952600
80
Lattice="11.223990791 0.0 0.0 5.611995395 9.720261156 0.0 0.0 0.0 29.886262579" Properties=species:S:1:pos:R:3:forces:R:3 energy=-496.52578509 pbc="T T T"
C        4.20900000       4.05011000      18.27026000      -1.06752800       2.73924100      -3.14731100
C        7.01499000       8.91024000      18.27026000      -0.39616400      -0.57733200      -3.15804900
C        9.82099000       4.86013000      18.49926000      -2.22178900       2.18300200      -2.53201000
C        2.80600000       1.62004000      18.27026000      -0.58918200      -0.26538300      -2.59435900
C        8.41799000       0.00000000      18.72826000       0.26383900       0.35085600       0.28273700
C        5.61200000       2.43007000      18.49926000       2.78797700      -1.83240800      -2.32892500
C       11.22399000       3.24009000      18.27026000       1.14752000      -1.85419200      -3.10876900
C       12.62699000       7.29020000      18.72826000      -0.18592500      -0.32022300       0.24548700
O        7.01499000       8.91024000      19.42826000      -0.08560200      -0.07764800       2.97467800
O        8.41799000       0.00000000      19.88626000       0.05798300       0.13199300      -0.15377300
O        4.20900000       4.05011000      19.42826000      -1.62065900       1.86171600       2.86224400
O       11.22399000       3.24009000      19.42826000       1.59100700      -1.82670500       2.93540200
O        5.61200000       2.43007000      19.65726000       1.09848300      -1.45152200       1.07699800
O        2.80600000       1.62004000      19.42826000       0.03607800      -0.01427800       2.64902500
O        9.82099000       4.86013000      19.65726000      -1.12775600       1.40735000       1.19426800
O       12.62699000       7.29020000      19.88626000      -0.07753900      -0.13836200      -0.12651600
Pt       5.61200000       6.48017000      14.58218000       0.01494900       0.00467400      -0.29022900
Pt       8.41799000       6.48017000      14.58218000      -0.09861300      -0.00990900      -0.24786200
Pt      11.22399000       6.48017000      14.58218000       0.17958700      -0.10242800      -0.14831400
Pt      15.43299000       8.91024000      14.58218000      -0.10087100       0.10285500      -0.18956200
Pt       7.01499000       8.91024000      14.58218000      -0.03017700      -0.02218400      -0.65009000
Pt       9.82099000       8.91024000      14.58218000      -0.04752800       0.00334800      -0.16247400
Pt      12.62699000       8.91024000      14.58218000       0.12549600      -0.06924100      -0.25731600
Pt       0.00000000       0.00000000      16.87326000       0.05627500      -0.41666900       0.31680800
Pt       2.80600000       0.00000000      16.87326000       0.16912800      -0.21164000       0.78203600
Pt       5.61200000       0.00000000      16.87326000      -0.27284100      -0.37159300      -0.38359500
Pt       8.41799000       0.00000000      16.87326000       0.26350400       0.30779400       0.79453800
Pt       4.20900000       2.43007000      16.87326000       0.34960600      -0.52734400       1.23519800
Pt       7.01499000       2.43007000      16.87326000      -0.52615300       0.07679600       1.16652800
Pt       9.82099000       2.43007000      16.87326000       0.00630500      -0.23117500       0.31483300
Pt       2.80600000       4.86013000      16.87326000       0.48820000       0.14272900       0.37643900
Pt       5.61200000       4.86013000      16.87326000       0.08844400       0.52204600       0.47268400
Pt       8.41799000       4.86013000      16.87326000       0.34192700       0.08773200       1.22178400
Pt      14.02999000       6.48017000      14.58218000      -0.16760500       0.07278000      -0.17635800
Pt       4.20900000       7.29020000      16.87326000       0.35131000      -0.20691400      -0.42575700
Pt       7.01499000       7.29020000      16.87326000      -0.05458700      -0.05684200       0.50772200
Pt       9.82099000       7.29020000      16.87326000      -0.11721200       0.33355000      -0.33757700
Pt      12.62699000       7.29020000      16.87326000      -0.12079000      -0.23569900       0.80097100
Pt       1.40300000       2.43007000      16.87326000      -0.12026100      -0.00658800       0.59254900
Pt      11.22399000       4.86013000      16.87326000      -0.33730600       0.19088500       1.17492200
Pt       0.00000000       0.00000000      10.00000000      -0.00653000      -0.01480200      -0.16102800
Pt       4.20900000       4.05011000      14.58218000      -0.01536400      -0.04348000      -0.73320500
Pt       1.40300000       0.81002000      12.29109000      -0.04589800      -0.01912700       0.12806800
Pt      12.62699000       7.29020000      10.00000000       0.01103900      -0.00120500      -0.15781300
Pt       9.82099000       7.29020000      10.00000000      -0.02233500      -0.01631900      -0.08672500
Pt       7.01499000       7.29020000      10.00000000       0.01359400      -0.00465900      -0.15371000
Pt       4.20900000       7.29020000      10.00000000       0.00012900       0.02571600      -0.09850500
Pt      11.22399000       4.86013000      10.00000000       0.01339600       0.03793200      -0.11373500
Pt       8.41799000       4.86013000      10.00000000      -0.01830000       0.02566200      -0.17433900
Pt       4.20900000       0.81002000      12.29109000       0.08199700      -0.06188900       0.12836700
Pt       5.61200000       4.86013000      10.00000000       0.05435400      -0.02857500      -0.12059800
Pt       9.82099000       2.43007000      10.00000000      -0.00899100      -0.04039600      -0.09509000
Pt       7.01499000       2.43007000      10.00000000      -0.01981600       0.01764100      -0.09890500
Pt       4.20900000       2.43007000      10.00000000       0.01515600      -0.04709800      -0.18208200
Pt       1.40300000       2.43007000      10.00000000       0.00826600      -0.02344300      -0.05154900
Pt       8.41799000       0.00000000      10.00000000      -0.00210100       0.00617100      -0.14795300
Pt       5.61200000       0.00000000      10.00000000      -0.00429600       0.00507900      -0.18693600
Pt       2.80600000       0.00000000      10.00000000       0.00104600       0.02418500      -0.09483000
Pt       2.80600000       4.86013000      10.00000000      -0.03601700       0.02666600      -0.05187700
Pt       7.01499000       4.05011000      14.58218000       0.20367400       0.16196400      -0.05914400
Pt       7.01499000       0.81002000      12.29109000       0.01454300      -0.04400400       0.01518700
Pt       2.80600000       3.24009000      12.29109000       0.04851000      -0.00219300       0.11717400
Pt      12.62699000       4.05011000      14.58218000      -0.10164900       0.17767500      -0.23204000
Pt       8.41799000       1.62004000      14.58218000       0.02701900       0.05408100      -0.00626800
Pt       5.61200000       1.62004000      14.58218000      -0.09428400      -0.01966000      -0.56742100
Pt       2.80600000       1.62004000      14.58218000       0.10872100       0.15130500      -0.36290000
Pt      11.22399000       1.62004000      14.58218000      -0.01332700      -0.08019800      -0.43978200
Pt      14.02999000       8.10022000      12.29109000      -0.06036800       0.04068000       0.12903900
Pt      11.22399000       8.10022000      12.29109000       0.01490600       0.03903500      -0.01147100
Pt       9.82099000       0.81002000      12.29109000       0.00015300      -0.09761500       0.13128800
Pt       8.41799000       8.10022000      12.29109000       0.01131500       0.03318600       0.11424200
Pt      12.62699000       5.67015000      12.29109000       0.00293600       0.07946200       0.24466300
Pt       9.82099000       5.67015000      12.29109000      -0.02266100      -0.03342200       0.03521500
Pt       7.01499000       5.67015000      12.29109000       0.01775200       0.03155600       0.24311200
Pt       4.20900000       5.67015000      12.29109000       0.00307800       0.04030000       0.01647500
Pt      11.22399000       3.24009000      12.29109000      -0.01337300       0.01110100       0.14915400
Pt       8.41799000       3.24009000      12.29109000      -0.03582400       0.00285500       0.04541700
Pt       5.61200000       3.24009000      12.29109000      -0.08008000      -0.04443400       0.17122500
Pt       5.61200000       8.10022000      12.29109000      -0.01403900      -0.01692900      -0.00399600
Pt       9.82099000       4.05011000      14.58218000      -0.08786100      -0.04587100      -0.83572800
80
Lattice="11.223990791 0.0 0.0 5.611995395 9.720261156 0.0 0.0 0.0 29.886262579" Properties=species:S:1:pos:R:3:forces:R:3 energy=-495.73588818 pbc="T T T"
C        8.41799000       0.00000000      18.72826000      -0.24301100       0.38796300       0.21282800
C        7.01499000       4.86013000      18.49926000       2.18560100       1.81762600      -2.15840000
C        8.41799000       7.29020000      18.49926000       0.25555200       0.68349700      -2.98204400
C        5.61200000       3.24009000      18.27026000      -0.05428200      -4.06040900      -3.42618500
C        1.40300000       2.43007000      18.72826000       0.05457400      -0.14762500       0.30913200
C        4.20900000       4.86013000      18.49926000      -3.00336200       0.92526200      -2.50266300
C        9.82099000       4.05011000      18.27026000       0.44770600      -0.18986200      -3.44897600
C        4.20900000       7.29020000      18.72826000       0.13255500       0.79349800       0.43192800
O        7.01499000       4.86013000      19.65726000       1.02841000       1.27835400       0.89263700
O        1.40300000       2.43007000      19.88626000       0.01475800       0.02618300      -0.16146900
O        8.41799000       0.00000000      19.88626000      -0.06908800       0.13132500      -0.07887200
O        9.82099000       4.05011000      19.42826000       0.08836500      -0.03393600       3.19240600
O        4.20900000       4.86013000      19.65726000      -1.06077200       0.59092800       1.10527300
O        5.61200000       3.24009000      19.42826000       0.00582900      -3.57757300       3.01208200
O        8.41799000       7.29020000      19.65726000       0.05688600       0.05115800       1.48942800
O        4.20900000       7.29020000      19.88626000       0.09757900       0.58329000      -0.16404500
Pt       5.61200000       6.48017000      14.58218000      -0.01136900       0.04968800      -0.06068100
Pt       8.41799000       6.48017000      14.58218000       0.03855500      -0.13767600      -0.56709700
Pt      11.22399000       6.48017000      14.58218000      -0.08056600       0.12018800      -0.07698400
Pt      15.43299000       8.91024000      14.58218000      -0.13175500      -0.06526400      -0.26804700
Pt       7.01499000       8.91024000      14.58218000      -0.03767800       0.01452200      -0.34775800
Pt       9.82099000       8.91024000      14.58218000       0.04100000       0.01069700      -0.36047000
Pt      12.62699000       8.91024000      14.58218000       0.13979100       0.13462500      -0.09387300
Pt       0.00000000       0.00000000      16.87326000       0.27973700       0.04277200      -0.37039400
Pt       2.80600000       0.00000000      16.87326000       0.16928100       0.15210700      -0.20752300
Pt       5.61200000       0.00000000      16.87326000      -0.27638800      -0.26885300      -0.21498600
Pt       8.41799000       0.00000000      16.87326000      -0.27439100       0.27529900       0.79576900
Pt       4.20900000       2.43007000      16.87326000       0.29166900      -0.65672200       0.48654400
Pt       7.01499000       2.43007000      16.87326000      -0.33613200      -0.41939400       0.42921900
Pt       9.82099000       2.43007000      16.87326000      -0.04552600       0.14224600       0.34927300
Pt       2.80600000       4.86013000      16.87326000       0.28692500      -0.00001700       1.18780000
Pt       5.61200000       4.86013000      16.87326000       0.10272500       0.34403600       1.61607000
Pt       8.41799000       4.86013000      16.87326000      -0.32818600      -0.40315500       1.38929000
Pt      14.02999000       6.48017000      14.58218000       0.07097700       0.05054200      -0.25400600
Pt       4.20900000       7.29020000      16.87326000       0.02919100       0.42652100       0.60146400
Pt       7.01499000       7.29020000      16.87326000       0.77728100       0.61087300       0.97969400
Pt       9.82099000       7.29020000      16.87326000      -0.20321800       0.31398500       1.23312400
Pt      12.62699000       7.29020000      16.87326000      -0.66048300      -0.19280400      -0.29773700
Pt       1.40300000       2.43007000      16.87326000       0.18478300      -0.20759600       0.80627200