52
Lattice="8.418 0.0 0.0 -4.209 7.290201849 0.0 0.0 0.0 25.66162" Properties=species:S:1:pos:R:3:forces:R:3 energy=-333.73910001 pbc="T T T"
C        2.74676000       6.41371000      16.47757000       0.00737300       0.00758400       0.02790500
C        5.58937000       1.65111000      16.48188000      -0.00793400       0.00206600       0.02798800
C       -1.29855000       4.08300000      16.48484000      -0.01133100       0.00324600       0.01100800
C       -2.81722000       6.50735000      16.43097000      -0.01017300      -0.00442200       0.05239400
C        4.07649000       4.09249000      16.47404000       0.00249700       0.00933200       0.01902000
C        2.71781000       1.74417000      16.47548000      -0.00314700      -0.00584500      -0.00416900
C        0.04185000       6.39968000      16.48433000      -0.01373400       0.00449800       0.03734900
C        0.04450000       1.73495000      16.47918000      -0.00768200      -0.01294300       0.04413300
O        5.58594000       1.65163000      17.66046000      -0.00440300       0.00528300      -0.00150500
O       -2.82152000       6.50949000      17.61259000       0.00162700      -0.00178300      -0.04549100
O       -0.00015000       6.46566000      17.66118000       0.00302900      -0.01029900      -0.02632200
O        2.75735000       1.69044000      17.65344000      -0.00583600       0.00256900       0.00482800
O       -1.37439000       4.08550000      17.66162000       0.00558900       0.00186100      -0.00318300
O        2.76953000       6.47267000      17.65615000      -0.00813000      -0.01561300      -0.02438000
O        4.14314000       4.08579000      17.65228000      -0.01320500       0.00242900      -0.01296800
O        0.00693000       1.68628000      17.65798000      -0.00152000       0.01036600      -0.03880200
Pt       7.01654000       2.42668000       8.01269000       0.00517600      -0.00093800      -0.04285500
Pt      -0.00496000       3.25462000      10.33952000      -0.00245400      -0.00083300       0.05321800
Pt      -1.42319000       4.06323000      12.62733000       0.00340000       0.01149900      -0.01538600
Pt       6.98793000       2.47152000      15.08599000      -0.00177700      -0.02109300      -0.02891200
Pt      -2.80258000       4.85744000       8.00045000       0.00478500      -0.00537400      -0.04363700
Pt       1.39266000       5.67436000      10.34013000      -0.00428700       0.00283000       0.04650100
Pt      -1.41227000       5.67981000      10.31801000      -0.00547800       0.00302800       0.02487500
Pt       1.37375000       2.46163000      15.08522000       0.00280000       0.03370500      -0.03756200
Pt      -1.39918000       7.28786000       8.00000000       0.00671500      -0.00040900      -0.04506700
Pt       4.19932000       0.81951000      10.31945000      -0.00639100      -0.00197300       0.04004200
Pt       2.79124000       1.64157000      12.62310000      -0.01422500       0.03782400      -0.01745400
Pt       2.76958000       0.03722000      15.03198000       0.01904600      -0.00953800       0.02412600
Pt       1.40675000       2.42910000       8.02237000       0.00906700      -0.00011700       0.01050200
Pt       1.38223000       4.06914000      12.70333000      -0.00248100      -0.00248000       0.06994100
Pt       8.38390000       0.03843000      15.04110000      -0.00134900      -0.01032000       0.03397500
Pt       5.57875000       4.90049000      15.03295000       0.00374600      -0.02212900       0.01976200
Pt      -0.02578000       1.64153000      12.62621000       0.00387700       0.03414200      -0.01556000
Pt       4.19880000       5.67992000      10.31794000       0.01099600       0.00614100       0.02073000
Pt       0.00409000       4.85764000       8.02264000       0.01230000      -0.00704400       0.01081000
Pt       5.61580000       0.00022000       8.01276000       0.00124700      -0.00416800      -0.04377100
Pt       7.00605000       0.81939000      10.32037000       0.01401600      -0.00562700       0.04456300
Pt       5.59264000       1.63804000      12.64481000      -0.00767700       0.01219400       0.01997900
Pt       4.21351000       2.42730000       8.01003000       0.00455700      -0.00480500      -0.04125300
Pt      -0.03441000       4.89726000      15.08620000       0.04480700      -0.02247200      -0.04187100
Pt       5.60246000       3.24991000      10.31997000       0.00297800       0.00841600       0.03872500
Pt       4.18981000       4.06278000      12.62399000      -0.03291900       0.01094100      -0.01958800
Pt       4.17391000       2.46761000      15.07825000       0.03531700      -0.02136900      -0.02869700
Pt       2.80867000       4.85738000       8.02241000       0.00367800      -0.00886900       0.01201300
Pt      -2.82724000       6.50027000      12.60484000      -0.01150200       0.01291600      -0.04218200
Pt       2.78120000       6.50245000      12.62651000      -0.01818600      -0.00192100      -0.01658300
Pt       2.78097000       4.89710000      15.08394000      -0.02610000      -0.02054700      -0.03539800
Pt       5.57688000       0.02799000      15.08467000       0.01033400       0.00503400      -0.03220600
Pt      -0.01546000       6.50161000      12.62642000       0.00324700       0.00487900      -0.01342800
Pt      -4.20605000       7.28825000       8.00099000       0.00427700      -0.00183500      -0.04864300
Pt       1.39326000       0.82071000      10.31728000       0.00100100      -0.00631200       0.02106200
Pt       2.79089000       3.25407000      10.33946000      -0.00556500      -0.00170800       0.05142200
52
Lattice="8.418 0.0 0.0 -4.209 7.290201849 0.0 0.0 0.0 25.66225" Properties=species:S:1:pos:R:3:forces:R:3 energy=-333.73861517 pbc="T T T"
C        2.74657000       6.41334000      16.47688000       0.00839900       0.01982100       0.12355400
C        5.58960000       1.65124000      16.48049000      -0.01062000       0.00062900       0.15605700
C       -1.29815000       4.08310000      16.48361000      -0.02961900      -0.00115600       0.18972700
C       -2.81705000       6.50746000      16.43080000      -0.01133100      -0.00505300       0.01662500
C        4.07620000       4.09264000      16.47291000       0.01729700       0.00254700       0.17374300
C        2.71753000       1.74443000      16.47384000       0.01348900      -0.01997800       0.23993900
C        0.04203000       6.39937000      16.48364000      -0.01503000       0.01548500       0.12066900
C        0.04465000       1.73521000      16.47894000      -0.01186800      -0.01473500       0.06542600
O        5.58593000       1.65151000      17.66031000      -0.00307500       0.00630200      -0.10923500
O       -2.82160000       6.50953000      17.61182000       0.00198800      -0.00118600       0.00160500
O       -0.00024000       6.46596000      17.66117000       0.00386000      -0.01571000      -0.09256100
O        2.75755000       1.69036000      17.65445000      -0.01600800       0.01175600      -0.22551600
O       -1.37469000       4.08539000      17.66225000       0.01764300       0.00416900      -0.16947500
O        2.76960000       6.47320000      17.65635000      -0.00800700      -0.02239500      -0.10836700
O        4.14341000       4.08567000      17.65273000      -0.02162200       0.00642700      -0.15467100
O        0.00684000       1.68610000      17.65776000      -0.00070900       0.00967700      -0.04871300
Pt       7.01634000       2.42660000       8.01277000       0.00654200      -0.00010800      -0.04533600
Pt      -0.00511000       3.25450000      10.33917000       0.00049900      -0.00203500       0.05132000
Pt      -1.42318000       4.06304000      12.62656000       0.00662600       0.01014600      -0.00807800
Pt       6.98770000       2.47163000      15.08675000       0.00157200      -0.02093800      -0.04733100
Pt      -2.80258000       4.85751000       8.00044000       0.00481000      -0.00518400      -0.04389800
Pt       1.39282000       5.67457000      10.34015000      -0.00509600      -0.00073300       0.04059400
Pt      -1.41229000       5.67987000      10.31817000      -0.00457000       0.00225800       0.01901200
Pt       1.37384000       2.46061000      15.08583000      -0.00817300       0.05501700      -0.06177300
Pt      -1.39929000       7.28771000       8.00000000       0.00755000      -0.00032400      -0.04357400
Pt       4.19928000       0.81944000      10.31926000      -0.00695200      -0.00200600       0.03853000
Pt       2.79141000       1.64167000      12.62242000      -0.01485500       0.03648700      -0.01349800
Pt       2.76906000       0.03720000      15.03176000       0.02815000      -0.00288200       0.01565900
Pt       1.40678000       2.42904000       8.02225000       0.00932600      -0.00040900       0.01063200
Pt       1.38235000       4.06915000      12.70170000      -0.00402200      -0.00634000       0.08774900
Pt       8.38431000       0.03819000      15.04077000      -0.00980200      -0.00623200       0.02656600
Pt       5.57858000       4.90099000      15.03270000       0.00518900      -0.02964500       0.01285200
Pt      -0.02582000       1.64144000      12.62558000       0.00438600       0.03770900      -0.01214600
Pt       4.19873000       5.67993000      10.31816000       0.01179300       0.00574300       0.01272200
Pt       0.00409000       4.85756000       8.02251000       0.01255300      -0.00646900       0.01088800
Pt       5.61582000       0.00035000       8.01288000       0.00044100      -0.00639900      -0.04567900
Pt       7.00593000       0.81938000      10.32000000       0.01454100      -0.00431400       0.04644000
Pt       5.59264000       1.63793000      12.64436000      -0.00638000       0.01444700       0.02791800
Pt       4.21354000       2.42729000       8.01003000       0.00333000      -0.00468100      -0.04271500
Pt      -0.03525000       4.89782000      15.08673000       0.05954700      -0.03361200      -0.06353300
Pt       5.60242000       3.25000000      10.31974000       0.00212200       0.00834800       0.04046700
Pt       4.18982000       4.06260000      12.62336000      -0.03177100       0.01078300      -0.01143100
Pt       4.17368000       2.46774000      15.07894000       0.03614500      -0.02186200      -0.04737500
Pt       2.80873000       4.85730000       8.02228000       0.00322100      -0.00883300       0.01231100
Pt      -2.82726000       6.50015000      12.60423000      -0.01006500       0.01317000      -0.03982900
Pt       2.78123000       6.50250000      12.62583000      -0.01903600      -0.00019500      -0.00928700
Pt       2.78179000       4.89745000      15.08445000      -0.04507100      -0.02565700      -0.05484500
Pt       5.57673000       0.02806000      15.08555000       0.01206000       0.00293800      -0.05237700
Pt      -0.01521000       6.50150000      12.62565000       0.00248900       0.00458300      -0.00155600
Pt      -4.20602000       7.28816000       8.00108000       0.00480100      -0.00201500      -0.04932000
Pt       1.39324000       0.82064000      10.31747000       0.00156500      -0.00609900       0.01671500
Pt       2.79129000       3.25393000      10.33945000      -0.00825300      -0.00125800       0.04439700
52
Lattice="8.418 0.0 0.0 -4.209 7.290201849 0.0 0.0 0.0 25.65997" Properties=species:S:1:pos:R:3:forces:R:3 energy=-333.7353573 pbc="T T T"
C        2.74674000       6.41374000      16.47878000       0.00087300      -0.00830100      -0.20778000
C        5.58940000       1.65113000      16.48341000      -0.00617900       0.00196600      -0.28862500
C       -1.29867000       4.08301000      16.48689000       0.02036600       0.00387200      -0.37344600
C       -2.81719000       6.50737000      16.43090000      -0.01058900      -0.00483400       0.02279500
C        4.07659000       4.09248000      16.47589000      -0.02197600       0.01232500      -0.33475600
C        2.71791000       1.74405000      16.47813000      -0.02329800       0.02318300      -0.49356700
C        0.04184000       6.39972000      16.48547000      -0.00391100      -0.01182800      -0.19283100
C        0.04449000       1.73497000      16.47974000      -0.00350700      -0.00715700      -0.08060000
O        5.58595000       1.65160000      17.65869000      -0.00683600       0.00633700       0.31139100
O       -2.82153000       6.50950000      17.61253000       0.00204000      -0.00227300      -0.02591000
O       -0.00013000       6.46565000      17.65997000      -0.00539600       0.00235100       0.19718100
O        2.75728000       1.69055000      17.65072000       0.01177600      -0.01998700       0.49364800
O       -1.37430000       4.08548000      17.65949000      -0.02063000       0.00236300       0.38013500
O        2.76953000       6.47271000      17.65488000      -0.00409300      -0.00466700       0.20643200
O        4.14308000       4.08580000      17.65035000       0.00663800      -0.00094900       0.33621800
O        0.00693000       1.68625000      17.65740000      -0.00512800       0.00617300       0.07853500
Pt       7.01650000       2.42667000       8.01269000       0.00529700      -0.00258500      -0.04296300
Pt      -0.00498000       3.25460000      10.33943000      -0.00246000      -0.00083600       0.05437300
Pt      -1.42318000       4.06319000      12.62718000       0.00382300       0.01034100      -0.01321400
Pt       6.98789000       2.47154000      15.08607000      -0.00146000      -0.01627000      -0.03311700
Pt      -2.80258000       4.85745000       8.00045000       0.00460600      -0.00555500      -0.04264200
Pt       1.39269000       5.67440000      10.34011000      -0.00468100       0.00217500       0.04716400
Pt      -1.41227000       5.67982000      10.31802000      -0.00460300       0.00220100       0.02421200
Pt       1.37373000       2.46152000      15.08520000       0.00295800       0.03045800      -0.03436600
Pt      -1.39920000       7.28783000       8.00000000       0.00645200      -0.00062600      -0.04397300
Pt       4.19931000       0.81949000      10.31939000      -0.00523400      -0.00249600       0.04052500
Pt       2.79127000       1.64159000      12.62296000      -0.01313900       0.03641400      -0.01432200
Pt       2.76950000       0.03724000      15.03189000       0.01839300      -0.01220100       0.02458100
Pt       1.40676000       2.42909000       8.02234000       0.00876500      -0.00048300       0.01137500
Pt       1.38225000       4.06914000      12.70302000      -0.00058600      -0.00249900       0.07125800
Pt       8.38395000       0.03839000      15.04098000      -0.00092800      -0.00997200       0.03866600
Pt       5.57873000       4.90056000      15.03286000       0.00352000      -0.01995500       0.01794000
Pt      -0.02579000       1.64152000      12.62609000       0.00199900       0.03509400      -0.01463000
Pt       4.19880000       5.67991000      10.31794000       0.01139300       0.00559100       0.02037000
Pt       0.00409000       4.85763000       8.02261000       0.01198700      -0.00712500       0.01161400
Pt       5.61581000       0.00024000       8.01278000       0.00231800      -0.00407000      -0.04384400
Pt       7.00603000       0.81940000      10.32028000       0.01511400      -0.00623300       0.04549600
Pt       5.59265000       1.63802000      12.64472000      -0.00713600       0.01307600       0.02139900
Pt       4.21351000       2.42730000       8.01002000       0.00396900      -0.00500100      -0.04058800
Pt      -0.03451000       4.89734000      15.08619000       0.03853000      -0.02209500      -0.03253700
Pt       5.60245000       3.24992000      10.31991000       0.00291300       0.00806900       0.04043900
Pt       4.18981000       4.06273000      12.62389000      -0.03213900       0.00983600      -0.01899200
Pt       4.17385000       2.46763000      15.07829000       0.03726100      -0.01874700      -0.02796500
Pt       2.80868000       4.85736000       8.02238000       0.00335300      -0.00901300       0.01289300
Pt      -2.82724000       6.50025000      12.60472000      -0.01178800       0.01274200      -0.03992700
Pt       2.78120000       6.50245000      12.62640000      -0.01808400      -0.00196000      -0.01645000
Pt       2.78105000       4.89712000      15.08395000      -0.02059900      -0.01795700      -0.02784400
Pt       5.57690000       0.02800000      15.08470000       0.00949500       0.00628400      -0.03437000
Pt      -0.01541000       6.50159000      12.62627000       0.00212500       0.00374800      -0.01141000
Pt      -4.20604000       7.28823000       8.00101000       0.00405800      -0.00202200      -0.05102500
Pt       1.39325000       0.82070000      10.31730000       0.00099300      -0.00621000       0.02217000
Pt       2.79097000       3.25405000      10.33943000      -0.00663600      -0.00069300       0.05088800
52
Lattice="8.418 0.0 0.0 -4.209 7.290201849 0.0 0.0 0.0 25.66138" Properties=species:S:1:pos:R:3:forces:R:3 energy=-333.73879872 pbc="T T T"
C        2.74662000       6.41347000      16.47748000       0.00596900       0.01090000       0.02004000
C        5.58954000       1.65120000      16.48142000      -0.00917500       0.00104900       0.01770000
C       -1.29832000       4.08307000      16.48466000      -0.01352300       0.00021800       0.01285300
C       -2.81709000       6.50743000      16.43084000      -0.01123600      -0.00507000       0.01902800
C        4.07632000       4.09259000      16.47386000       0.00472500       0.00611900       0.01564600
C        2.71765000       1.74431000      16.47521000       0.00145100      -0.00678100       0.01065400
C        0.04197000       6.39948000      16.48423000      -0.01146800       0.00661100       0.02107600
C        0.04460000       1.73514000      16.47920000      -0.00914000      -0.01237400       0.02032600
O        5.58594000       1.65154000      17.65980000      -0.00412200       0.00619000       0.02294800
O       -2.82158000       6.50952000      17.61205000       0.00219300      -0.00180100      -0.00717500
O       -0.00021000       6.46586000      17.66079000       0.00109800      -0.01000500      -0.00044600
O        2.75746000       1.69042000      17.65327000      -0.00704200       0.00176600      -0.00120600
O       -1.37457000       4.08542000      17.66138000       0.00573700       0.00341900       0.00306900
O        2.76957000       6.47304000      17.65589000      -0.00658400      -0.01688600      -0.00986700
O        4.14330000       4.08571000      17.65198000      -0.01247500       0.00401200      -0.00081100
O        0.00687000       1.68614000      17.65765000      -0.00191300       0.00852600      -0.00815000
Pt       7.01639000       2.42662000       8.01275000       0.00631200      -0.00046100      -0.04408100
Pt      -0.00507000       3.25453000      10.33925000      -0.00010100      -0.00209100       0.05177400
Pt      -1.42318000       4.06309000      12.62676000       0.00448400       0.01102400      -0.01078400
Pt       6.98776000       2.47160000      15.08654000       0.00167000      -0.01907200      -0.04546000
Pt      -2.80258000       4.85749000       8.00044000       0.00492600      -0.00535000      -0.04313100
Pt       1.39278000       5.67451000      10.34014000      -0.00480300       0.00098200       0.04202900
Pt      -1.41229000       5.67985000      10.31812000      -0.00462200       0.00224700       0.02162000
Pt       1.37380000       2.46090000      15.08563000      -0.00399900       0.04776500      -0.05192100
Pt      -1.39927000       7.28775000       8.00000000       0.00692300      -0.00049200      -0.04441400
Pt       4.19929000       0.81945000      10.31931000      -0.00609700      -0.00186400       0.03879800
Pt       2.79137000       1.64164000      12.62259000      -0.01459200       0.03666700      -0.01297000
Pt       2.76920000       0.03721000      15.03180000       0.02375500      -0.00830200       0.01826800
Pt       1.40677000       2.42906000       8.02228000       0.00934500      -0.00051500       0.01121600
Pt       1.38232000       4.06915000      12.70212000      -0.00445300      -0.00405800       0.08269200
Pt       8.38420000       0.03825000      15.04084000      -0.00679500      -0.00758800       0.02889500
Pt       5.57862000       4.90085000      15.03275000       0.00508100      -0.02674000       0.01453000
Pt      -0.02581000       1.64146000      12.62575000       0.00443500       0.03705500      -0.01188700
Pt       4.19875000       5.67992000      10.31809000       0.01184000       0.00566700       0.01561100
Pt       0.00409000       4.85758000       8.02254000       0.01255300      -0.00668400       0.01149700
Pt       5.61582000       0.00032000       8.01285000       0.00072000      -0.00600600      -0.04446500
Pt       7.00596000       0.81939000      10.32009000       0.01440900      -0.00525400       0.04490200
Pt       5.59264000       1.63796000      12.64448000      -0.00706000       0.01202600       0.02337000
Pt       4.21353000       2.42730000       8.01003000       0.00368900      -0.00491200      -0.04161000
Pt      -0.03501000       4.89767000      15.08656000       0.05303900      -0.02820600      -0.05316100
Pt       5.60243000       3.24998000      10.31979000       0.00341900       0.00756200       0.03804700
Pt       4.18982000       4.06264000      12.62353000      -0.03227100       0.01048700      -0.01316400
Pt       4.17374000       2.46771000      15.07874000       0.03727700      -0.02074300      -0.04177600
Pt       2.80872000       4.85732000       8.02231000       0.00339300      -0.00895100       0.01287700
Pt      -2.82725000       6.50018000      12.60439000      -0.01048700       0.01295300      -0.03945800
Pt       2.78122000       6.50248000      12.62602000      -0.01823600      -0.00221600      -0.01173900
Pt       2.78156000       4.89734000      15.08429000      -0.03830900      -0.02384500      -0.04486500
Pt       5.57679000       0.02804000      15.08528000       0.01018500       0.00533000      -0.04951000
Pt      -0.01528000       6.50153000      12.62585000       0.00192900       0.00560700      -0.00287900
Pt      -4.20603000       7.28818000       8.00106000       0.00474800      -0.00208800      -0.04838300
Pt       1.39324000       0.82066000      10.31742000       0.00105400      -0.00553200       0.01794700
Pt       2.79119000       3.25397000      10.33945000      -0.00785800      -0.00029700       0.04589800
52
Lattice="8.417993093 0.0 0.0 4.208996546 7.290195867 0.0 0.0 0.0 29.886262579" Properties=species:S:1:pos:R:3:forces:R:3 energy=-331.70754917 pbc="T T T"
C        4.20900000       4.86013000      18.49926000      -0.99058100       1.39969600      -2.40065000
C        8.41799000       2.43007000      18.49926000      -0.53437300       0.74494600      -2.79601000
C        9.82099000       4.86013000      18.49926000      -0.88392400      -0.21963500      -2.93230500
C        2.80600000       0.00000000      18.72826000       0.01438100      -1.09455100       0.38842300
C        5.61200000       0.00000000      18.72826000      -0.00440300       0.93655900       0.44358300
C        5.61200000       3.24009000      18.27026000       1.30076400      -1.41556000      -3.26256600
C        2.80600000       2.43007000      18.49926000       0.31224700       0.28047600      -2.72801700
C        0.00000000       0.00000000      18.72826000      -0.00992100      -0.02224400       0.70637700
O        5.61200000       0.00000000      19.88626000      -0.00616700       0.72027800      -0.13282900
O        0.00000000       0.00000000      19.88626000       0.00718800       0.01219900      -0.20631500
O        8.41799000       2.43007000      19.65726000      -0.07076400       0.69521000       1.22462200
O        5.61200000       3.24009000      19.42826000       1.62980400      -1.81128600       3.02455000
O        9.82099000       4.86013000      19.65726000      -0.02691500      -0.63713200       1.36195500
O        2.80600000       2.43007000      19.65726000       0.03725500       0.61203000       1.23433300
O        2.80600000       0.00000000      19.88626000       0.00258800      -0.71989300      -0.07900200
O        4.20900000       4.86013000      19.65726000      -1.07815700       0.67862100       1.00995900
Pt       8.41799000       6.48017000      14.58218000      -0.07557100       0.21093100      -0.42312100
Pt       5.61200000       4.86013000      16.87326000      -0.21015300      -0.08330500       1.12899300
Pt       2.80600000       4.86013000      16.87326000       0.01626200      -0.20455700       1.95511400
Pt       7.01499000       2.43007000      16.87326000       0.48696100       0.22772600       1.45994500
Pt       4.20900000       2.43007000      16.87326000      -0.42915000      -0.32600200       1.10206600
Pt       1.40300000       2.43007000      16.87326000      -0.05822400      -0.28386900       1.92670700
Pt       5.61200000       0.00000000      16.87326000      -0.05285900       0.32046200       0.48102000
Pt       2.80600000       0.00000000      16.87326000       0.04027000      -0.58091100       0.48348500
Pt       0.00000000       0.00000000      16.87326000      -0.01703400       0.08659300       0.21070400
Pt       8.41799000       4.86013000      16.87326000       0.57665600      -0.03242900       0.93477400
Pt       0.00000000       0.00000000      10.00000000      -0.00447700      -0.01473500      -0.16100200
Pt       7.01499000       4.05011000      14.58218000       0.00426300       0.33842900      -0.31870300
Pt       2.80600000       0.00000000      10.00000000      -0.00594300      -0.04196800      -0.19458300
Pt       5.61200000       0.00000000      10.00000000      -0.00351200       0.00181600      -0.20731900
Pt       1.40300000       2.43007000      10.00000000       0.03820200       0.04231800      -0.18036600
Pt       4.20900000       2.43007000      10.00000000      -0.03306700       0.02839000      -0.11925000
Pt       7.01499000       2.43007000      10.00000000      -0.00533300       0.00889100      -0.17694700
Pt       2.80600000       4.86013000      10.00000000       0.01228800      -0.01280100      -0.28040900
Pt       5.61200000       4.86013000      10.00000000       0.00903800      -0.01331100      -0.24257800
Pt       8.41799000       4.86013000      10.00000000      -0.02194600       0.00114100      -0.23687100
Pt       1.40300000       0.81002000      12.29109000       0.00238000      -0.02748400       0.03422600
Pt       4.20900000       0.81002000      12.29109000      -0.01652700      -0.09282300       0.14512900
Pt      11.22399000       6.48017000      14.58218000      -0.01667400       0.14073400      -0.48339100
Pt       7.01499000       0.81002000      12.29109000       0.01390000      -0.03364700       0.13873800
Pt       5.61200000       3.24009000      12.29109000       0.04530700       0.01096700       0.14736900
Pt       8.41799000       3.24009000      12.29109000      -0.01736800      -0.02302600       0.14269000
Pt       4.20900000       5.67015000      12.29109000      -0.01079500      -0.02680600       0.09345400
Pt       7.01499000       5.67015000      12.29109000      -0.00112400      -0.00866600       0.12860800
Pt       9.82099000       5.67015000      12.29109000       0.02519300      -0.01464900       0.11403900
Pt       8.41799000       1.62004000      14.58218000       0.00901600      -0.03114600      -0.38182500
Pt       2.80600000       1.62004000      14.58218000      -0.02249700      -0.00349700      -0.30241800
Pt       5.61200000       1.62004000      14.58218000       0.00422100       0.04634700      -0.16043500
Pt       9.82099000       4.05011000      14.58218000       0.16081500       0.03766700      -0.64786700
Pt       4.20900000       4.05011000      14.58218000      -0.17939100       0.09615800      -0.85791600
Pt       2.80600000       3.24009000      12.29109000      -0.05544100       0.05859300       0.14178500
Pt       5.61200000       6.48017000      14.58218000       0.09329200       0.03875200      -0.24995200
52
Lattice="8.417993093 0.0 0.0 4.208996546 7.290195867 0.0 0.0 0.0 29.886262579" Properties=species:S:1:pos:R:3:forces:R:3 energy=-330.08086736 pbc="T T T"
C        7.01499000       0.00000000      18.49926000       1.86773000       2.64046200      -2.35854400
C        4.20900000       4.86013000      18.49926000      -0.25739100       0.28904100      -2.68535100
C        1.40300000       0.00000000      18.49926000      -0.03238900      -0.24684400      -2.76089900
C        7.01499000       4.86013000      18.49926000       0.30995500      -1.00065400      -2.74433400
C        1.40300000       2.43007000      18.72826000      -0.44783900       0.98421700       0.44422400
C        4.20900000       0.00000000      18.49926000      -1.84548400       1.36404600      -2.27324400
C        4.20900000       2.43007000      18.72826000       0.42752600       0.00943300       0.67369500
C        9.82099000       5.67015000      18.27026000      -0.03172000      -3.50122000      -3.12524000
O        1.40300000       2.43007000      19.88626000      -0.14041800       0.70956900      -0.14229200
O        9.82099000       5.67015000      19.42826000       0.00995800      -3.52198800       2.85626200
O        4.20900000       4.86013000      19.65726000      -0.04188900       0.62116900       1.17297000
O        4.20900000       0.00000000      19.65726000      -1.00370500       0.66294000       0.87349300
O        1.40300000       0.00000000      19.65726000       0.00245600      -0.62064400       1.13117200
O        4.20900000       2.43007000      19.88626000       0.14568900       0.01199100      -0.18052900
O        7.01499000       4.86013000      19.65726000       0.03386100      -0.14661300       1.32687000
O        7.01499000       0.00000000      19.65726000       1.00104600       1.43341700       1.04826300
Pt       8.41799000       6.48017000      14.58218000      -0.02528500       0.22190800      -0.61597100