54
Lattice="8.417993093 0.0 0.0 5.611995395 9.720261156 0.0 0.0 0.0 29.657262579" Properties=species:S:1:pos:R:3:forces:R:3 energy=-326.86528399 pbc="T T T"
C        1.40300000       0.81002000      18.27026000      -0.03508100       0.09622700      -3.39229600
C        7.01499000       4.05011000      18.27026000      -0.04866700      -0.08564600      -3.37155000
C        8.41799000       7.29020000      18.49926000       0.03826700       0.07497600      -2.88747700
O        1.40300000       0.81002000      19.42826000       0.00414400      -0.01996900       3.07111600
O        8.41799000       7.29020000      19.65726000      -0.00441500      -0.01833700       1.38582600
O        7.01499000       4.05011000      19.42826000       0.00682100       0.01185300       3.04761200
Pt       4.20900000       4.05011000      14.58218000      -0.00914700       0.02886100      -0.29694700
Pt       7.01499000       4.05011000      14.58218000       0.01570500      -0.01305400      -0.58552000
Pt      11.22399000       6.48017000      14.58218000      -0.11638100       0.10951200      -0.09932100
Pt       5.61200000       6.48017000      14.58218000       0.10980200       0.08210300      -0.05890100
Pt       8.41799000       6.48017000      14.58218000       0.01001600      -0.13556000      -0.57426100
Pt      12.62699000       8.91024000      14.58218000       0.09165000       0.07190200      -0.16387900
Pt       7.01499000       8.91024000      14.58218000      -0.04639200      -0.07334200      -0.59235000
Pt       9.82099000       8.91024000      14.58218000      -0.05581900       0.08042400      -0.23384700
Pt       0.00000000       0.00000000      16.87326000      -0.40250800      -0.14064100       0.59018400
Pt       2.80600000       0.00000000      16.87326000       0.29570200       0.31963600       0.56675800
Pt       9.82099000       4.05011000      14.58218000       0.00592700      -0.11475800      -0.13748500
Pt       4.20900000       2.43007000      16.87326000       0.04380400       0.00024500      -0.12232700
Pt       7.01499000       2.43007000      16.87326000      -0.32264400      -0.02791600       0.56446900
Pt       2.80600000       4.86013000      16.87326000       0.11689900      -0.06025500      -0.06456000
Pt       5.61200000       4.86013000      16.87326000      -0.31235100       0.04650900       0.61405600
Pt       8.41799000       4.86013000      16.87326000       0.19192500      -0.37826600       0.51501400
Pt       4.20900000       7.29020000      16.87326000      -0.04878900       0.02581800      -0.07575200
Pt       7.01499000       7.29020000      16.87326000       0.27590700      -0.14376300       1.12745600
Pt       9.82099000       7.29020000      16.87326000      -0.19511600      -0.06090700       1.27934900
Pt       5.61200000       0.00000000      16.87326000       0.10311000       0.08488400      -0.08104500
Pt       1.40300000       2.43007000      16.87326000       0.27728300       0.17677200       0.56759500
Pt       0.00000000       0.00000000      10.00000000       0.00514100       0.03544500      -0.08283100
Pt       8.41799000       1.62004000      14.58218000      -0.07764600       0.02811900      -0.48645000
Pt       2.80600000       0.00000000      10.00000000      -0.00303700      -0.00242100      -0.09442000
Pt       5.61200000       0.00000000      10.00000000       0.00385700      -0.00750300      -0.04398900
Pt       1.40300000       2.43007000      10.00000000      -0.01276200       0.00363700      -0.07874600
Pt       4.20900000       2.43007000      10.00000000       0.01726000       0.01824900      -0.07279300
Pt       7.01499000       2.43007000      10.00000000      -0.01266400       0.00848400      -0.06238200
Pt       2.80600000       4.86013000      10.00000000      -0.04055800      -0.02442900      -0.07464800
Pt       5.61200000       4.86013000      10.00000000       0.03723800      -0.03351500      -0.09550500
Pt       8.41799000       4.86013000      10.00000000       0.00011000      -0.00733800      -0.08919800
Pt       4.20900000       7.29020000      10.00000000       0.01782500      -0.04242100      -0.06318100
Pt       7.01499000       7.29020000      10.00000000       0.02185100       0.00586000      -0.07897700
Pt       9.82099000       7.29020000      10.00000000      -0.03996300       0.01684800      -0.13152200
Pt       1.40300000       0.81002000      12.29109000       0.03038100      -0.01574000       0.13523800
Pt       4.20900000       0.81002000      12.29109000      -0.02631400      -0.01283900       0.04657700
Pt       7.01499000       0.81002000      12.29109000      -0.00672400      -0.03336300       0.20999600
Pt       2.80600000       3.24009000      12.29109000       0.00903500      -0.02204400       0.04682600
Pt       5.61200000       3.24009000      12.29109000      -0.05475500       0.00230100       0.22003300
Pt       8.41799000       3.24009000      12.29109000       0.04931100       0.01811600       0.19027200
Pt       4.20900000       5.67015000      12.29109000      -0.01215700      -0.06310600       0.09267900
Pt       7.01499000       5.67015000      12.29109000      -0.04203000       0.03187800       0.18559800
Pt       9.82099000       5.67015000      12.29109000       0.05144400       0.10195000       0.10992700
Pt       5.61200000       8.10022000      12.29109000      -0.04299200       0.05040100       0.15308700
Pt       8.41799000       8.10022000      12.29109000       0.05469400       0.04157800       0.16528300
Pt      11.22399000       8.10022000      12.29109000      -0.01826600      -0.09290400       0.04386300
Pt       2.80600000       1.62004000      14.58218000       0.09072800       0.04188200      -0.48555000
Pt       5.61200000       1.62004000      14.58218000       0.01134200       0.01556600      -0.25110300
54
Lattice="8.417993093 0.0 0.0 5.611995395 9.720261156 0.0 0.0 0.0 29.886262579" Properties=species:S:1:pos:R:3:forces:R:3 energy=-326.66186323 pbc="T T T"
C        4.20900000       4.05011000      18.27026000       0.26171300       0.57311400      -3.23095000
C        2.80600000       1.62004000      18.27026000      -0.37844200      -0.50517800      -3.23017600
C        7.01499000       7.29020000      18.72826000       0.01504600      -0.00660000       0.35185100
O        4.20900000       4.05011000      19.42826000       0.04153200       0.12706200       2.98562300
O        7.01499000       7.29020000      19.88626000      -0.00717700       0.00317400      -0.15484000
O        2.80600000       1.62004000      19.42826000      -0.08379200      -0.10343700       2.98180700
Pt       4.20900000       4.05011000      14.58218000       0.02480000       0.03169500      -0.60899800
Pt       7.01499000       4.05011000      14.58218000       0.01107300      -0.02588100      -0.17865400
Pt      11.22399000       6.48017000      14.58218000      -0.03012400       0.01796400      -0.26079800
Pt       5.61200000       6.48017000      14.58218000       0.13681700       0.06221900      -0.21379900
Pt       8.41799000       6.48017000      14.58218000      -0.10543900       0.06300100      -0.18787400
Pt      12.62699000       8.91024000      14.58218000      -0.03770000       0.03791100      -0.26559500
Pt       7.01499000       8.91024000      14.58218000       0.01587400      -0.16918000      -0.23097800
Pt       9.82099000       8.91024000      14.58218000       0.02978400      -0.01344400      -0.18618100
Pt       0.00000000       0.00000000      16.87326000      -0.51933600       0.17534500      -0.14987700
Pt       2.80600000       0.00000000      16.87326000       0.21650700       0.16216900       0.48935200
Pt       9.82099000       4.05011000      14.58218000      -0.05603300       0.02645000      -0.22832700
Pt       4.20900000       2.43007000      16.87326000       0.31767400      -0.17930500       0.87265600
Pt       7.01499000       2.43007000      16.87326000       0.32700800      -0.19310800      -0.13642400
Pt       2.80600000       4.86013000      16.87326000      -0.17755700       0.39379900       0.61257300
Pt       5.61200000       4.86013000      16.87326000      -0.02442900      -0.27103700       0.48459400
Pt       8.41799000       4.86013000      16.87326000       0.19673700      -0.30864800      -0.15462100
Pt       4.20900000       7.29020000      16.87326000      -0.44579700       0.34676200      -0.15405300
Pt       7.01499000       7.29020000      16.87326000       0.02046100      -0.02618600       0.86844100
Pt       9.82099000       7.29020000      16.87326000       0.41399700      -0.01803800      -0.10883700
Pt       5.61200000       0.00000000      16.87326000       0.34464500      -0.21410400      -0.10901800
Pt       1.40300000       2.43007000      16.87326000      -0.44787700      -0.00209600       0.61505100
Pt       0.00000000       0.00000000      10.00000000       0.02868100      -0.00443900      -0.12078000
Pt       8.41799000       1.62004000      14.58218000      -0.04413700       0.01638800      -0.27731900
Pt       2.80600000       0.00000000      10.00000000       0.00102700      -0.00613500      -0.07278700
Pt       5.61200000       0.00000000      10.00000000      -0.01644900       0.01484900      -0.07633800
Pt       1.40300000       2.43007000      10.00000000       0.04493100       0.04403600      -0.12801400
Pt       4.20900000       2.43007000      10.00000000      -0.02213600       0.00566200      -0.08476400
Pt       7.01499000       2.43007000      10.00000000      -0.01056800      -0.02325500      -0.06547300
Pt       2.80600000       4.86013000      10.00000000       0.02200000      -0.08501600      -0.16373800
Pt       5.61200000       4.86013000      10.00000000       0.01999900      -0.00972600      -0.05233500
Pt       8.41799000       4.86013000      10.00000000      -0.01124200       0.00747100      -0.07162800
Pt       4.20900000       7.29020000      10.00000000      -0.00807900      -0.01471100      -0.09315000
Pt       7.01499000       7.29020000      10.00000000       0.00365800       0.00481100      -0.08902000
Pt       9.82099000       7.29020000      10.00000000       0.01065800       0.02111200      -0.08099900
Pt       1.40300000       0.81002000      12.29109000      -0.08116100       0.02208200       0.06893800
Pt       4.20900000       0.81002000      12.29109000       0.02462200      -0.00654900       0.20391000
Pt       7.01499000       0.81002000      12.29109000       0.04103200      -0.08460700       0.04933300
Pt       2.80600000       3.24009000      12.29109000      -0.02631200       0.02667000       0.20943200
Pt       5.61200000       3.24009000      12.29109000      -0.01270100      -0.01739000       0.21356700
Pt       8.41799000       3.24009000      12.29109000       0.03169300      -0.06748200       0.10288900
Pt       4.20900000       5.67015000      12.29109000      -0.07467900       0.05105600       0.05081300
Pt       7.01499000       5.67015000      12.29109000      -0.02128600       0.03912600       0.25228700
Pt       9.82099000       5.67015000      12.29109000       0.09648000      -0.00305500       0.07117700
Pt       5.61200000       8.10022000      12.29109000      -0.04677600       0.03906000       0.12064100
Pt       8.41799000       8.10022000      12.29109000      -0.03311700       0.01561100       0.25644500
Pt      11.22399000       8.10022000      12.29109000       0.06270000       0.02191700       0.07968300
Pt       2.80600000       1.62004000      14.58218000      -0.00148900      -0.02125800      -0.64172700
Pt       5.61200000       1.62004000      14.58218000      -0.03731600       0.02935100      -0.13299300
54
Lattice="8.417993093 0.0 0.0 5.611995395 9.720261156 0.0 0.0 0.0 29.657262579" Properties=species:S:1:pos:R:3:forces:R:3 energy=-326.52329219 pbc="T T T"
C        4.20900000       5.67015000      18.27026000       0.51205400       0.13952400      -3.24723200
C        9.82099000       4.86013000      18.49926000      -0.59004600      -0.10875900      -2.80472700
C        7.01499000       0.00000000      18.49926000      -0.01267000       0.07261600      -2.96075300
O        4.20900000       5.67015000      19.42826000       0.09183600       0.05185000       3.02302000
O        7.01499000       0.00000000      19.65726000       0.00389000      -0.01010500       1.46960200
O        9.82099000       4.86013000      19.65726000       0.00496800      -0.00268600       1.33509700
Pt       4.20900000       4.05011000      14.58218000      -0.12106200      -0.00641700      -0.29664400
Pt       7.01499000       4.05011000      14.58218000       0.03553100       0.13793300       0.00863100
Pt      11.22399000       6.48017000      14.58218000      -0.02592500       0.03357600      -0.51594600
Pt       5.61200000       6.48017000      14.58218000       0.07162900       0.05243800      -0.43786900
Pt       8.41799000       6.48017000      14.58218000      -0.05598400       0.02671200      -0.33907700
Pt      12.62699000       8.91024000      14.58218000      -0.00318200      -0.20263000      -0.49086600
Pt       7.01499000       8.91024000      14.58218000      -0.09509800       0.09254200      -0.02246400
Pt       9.82099000       8.91024000      14.58218000       0.08935500       0.08394100      -0.02532300
Pt       0.00000000       0.00000000      16.87326000      -0.23818300      -0.09250000       1.29275600
Pt       2.80600000       0.00000000      16.87326000      -0.01544000      -0.01503900      -0.00023500
Pt       9.82099000       4.05011000      14.58218000       0.11714300      -0.02001200      -0.48514000
Pt       4.20900000       2.43007000      16.87326000       0.01299100      -0.36410300      -0.11014300
Pt       7.01499000       2.43007000      16.87326000      -0.09925000       0.45854400      -0.10332200
Pt       2.80600000       4.86013000      16.87326000      -0.54444100      -0.30392400       1.57960200
Pt       5.61200000       4.86013000      16.87326000       0.25241300      -0.14598800       0.67465900
Pt       8.41799000       4.86013000      16.87326000       0.23623400      -0.08115800       1.31175500
Pt       4.20900000       7.29020000      16.87326000       0.12018600      -0.12089200       0.49083400
Pt       7.01499000       7.29020000      16.87326000       0.34652700       0.23455100      -0.15772300
Pt       9.82099000       7.29020000      16.87326000      -0.46031800       0.65359500      -0.16266600
Pt       5.61200000       0.00000000      16.87326000       0.24221600      -0.09308200       1.30016700
Pt       1.40300000       2.43007000      16.87326000       0.11625800      -0.42939400      -0.07850300
Pt       0.00000000       0.00000000      10.00000000      -0.02151500       0.00458300      -0.04235700
Pt       8.41799000       1.62004000      14.58218000       0.05316500       0.02975100      -0.36029700
Pt       2.80600000       0.00000000      10.00000000       0.01524300       0.02693900      -0.03333200
Pt       5.61200000       0.00000000      10.00000000       0.00529800       0.04601200      -0.08842000
Pt       1.40300000       2.43007000      10.00000000       0.02976400      -0.03075300      -0.10846000
Pt       4.20900000       2.43007000      10.00000000      -0.03341900      -0.02693000      -0.11487300
Pt       7.01499000       2.43007000      10.00000000       0.01620800       0.00587500      -0.15834500
Pt       2.80600000       4.86013000      10.00000000       0.00242100       0.00598100      -0.06956900
Pt       5.61200000       4.86013000      10.00000000       0.01413200       0.01932300      -0.06023800
Pt       8.41799000       4.86013000      10.00000000      -0.01568100       0.01265800      -0.05276900
Pt       4.20900000       7.29020000      10.00000000       0.00842700      -0.00997200      -0.06708900
Pt       7.01499000       7.29020000      10.00000000      -0.03716500      -0.03875800      -0.10561600
Pt       9.82099000       7.29020000      10.00000000       0.03723400      -0.03969800      -0.06691600
Pt       1.40300000       0.81002000      12.29109000      -0.02848800       0.01725000       0.23453900
Pt       4.20900000       0.81002000      12.29109000       0.04559100      -0.02025800       0.23632900
Pt       7.01499000       0.81002000      12.29109000      -0.01541100       0.12255000       0.11928900
Pt       2.80600000       3.24009000      12.29109000      -0.00451000      -0.01211800       0.15446400
Pt       5.61200000       3.24009000      12.29109000       0.04086100      -0.05345200       0.00269000
Pt       8.41799000       3.24009000      12.29109000      -0.04162600      -0.07925400      -0.03002400
Pt       4.20900000       5.67015000      12.29109000      -0.02717000      -0.00408600       0.26014400
Pt       7.01499000       5.67015000      12.29109000       0.05376700      -0.04416800       0.20278300
Pt       9.82099000       5.67015000      12.29109000      -0.02333900       0.00967400       0.21441100
Pt       5.61200000       8.10022000      12.29109000       0.03335700       0.01415900       0.16480800
Pt       8.41799000       8.10022000      12.29109000      -0.00427900      -0.04271600       0.00513000
Pt      11.22399000       8.10022000      12.29109000      -0.01879100       0.06176700       0.12885100
Pt       2.80600000       1.62004000      14.58218000      -0.00664100       0.01458500      -0.22843000
Pt       5.61200000       1.62004000      14.58218000      -0.06906300      -0.03007600      -0.38419300
54
Lattice="8.417993093 0.0 0.0 5.611995395 9.720261156 0.0 0.0 0.0 29.428262579" Properties=species:S:1:pos:R:3:forces:R:3 energy=-326.63929813 pbc="T T T"
C        8.41799000       1.62004000      18.27026000       0.39231700      -0.51622100      -3.12234200
C        9.82099000       5.67015000      18.27026000       0.19335800       0.09436900      -3.08502500
C        7.01499000       4.05011000      18.27026000      -0.43395800       0.50419900      -2.81194400
O        8.41799000       1.62004000      19.42826000       0.08261600      -0.10301900       2.89867700
O        7.01499000       4.05011000      19.42826000      -0.10794000       0.07995100       2.81505400
O        9.82099000       5.67015000      19.42826000       0.05538500       0.04492400       2.97987300
Pt       4.20900000       4.05011000      14.58218000      -0.08683500       0.08556700      -0.13456100
Pt       7.01499000       4.05011000      14.58218000       0.05998900       0.04495800      -0.55200700
Pt      11.22399000       6.48017000      14.58218000       0.07701700       0.05505900      -0.46713400
Pt       5.61200000       6.48017000      14.58218000      -0.00844300      -0.01987800      -0.21272000
Pt       8.41799000       6.48017000      14.58218000      -0.07796500       0.03799800      -0.45982700
Pt      12.62699000       8.91024000      14.58218000       0.04181900      -0.03595700      -0.23792900
Pt       7.01499000       8.91024000      14.58218000      -0.03333200      -0.00656200      -0.27066400
Pt       9.82099000       8.91024000      14.58218000      -0.00907600      -0.08366200      -0.18606000
Pt       0.00000000       0.00000000      16.87326000      -0.01420800      -0.24790800       0.64907700
Pt       2.80600000       0.00000000      16.87326000       0.32135700      -0.16826100      -0.05355700
Pt       9.82099000       4.05011000      14.58218000       0.01509100      -0.09149900      -0.43279000
Pt       4.20900000       2.43007000      16.87326000      -0.31914400      -0.16964400      -0.15738000
Pt       7.01499000       2.43007000      16.87326000      -0.28550000      -0.17562800       0.80797600
Pt       2.80600000       4.86013000      16.87326000       0.31019200      -0.11907000       0.54614500
Pt       5.61200000       4.86013000      16.87326000      -0.17040900       0.13017100       0.55481100
Pt       8.41799000       4.86013000      16.87326000      -0.14389800       0.21335200       0.64462700
Pt       4.20900000       7.29020000      16.87326000       0.27864700       0.18816100      -0.11314200
Pt       7.01499000       7.29020000      16.87326000      -0.30314300       0.48960100      -0.18066600
Pt       9.82099000       7.29020000      16.87326000       0.01213900       0.33887000       0.65960500
Pt       5.61200000       0.00000000      16.87326000      -0.33176200      -0.17639000      -0.11258600
Pt       1.40300000       2.43007000      16.87326000       0.39072200      -0.41887000       0.53300000
Pt       0.00000000       0.00000000      10.00000000       0.01534900       0.03698000      -0.11108300
Pt       8.41799000       1.62004000      14.58218000       0.02010800      -0.04866500      -0.61204800
Pt       2.80600000       0.00000000      10.00000000      -0.00967900       0.00001200      -0.12906500
Pt       5.61200000       0.00000000      10.00000000       0.01066900      -0.00721000      -0.05373300
Pt       1.40300000       2.43007000      10.00000000      -0.02096400      -0.03691500      -0.09925000
Pt       4.20900000       2.43007000      10.00000000      -0.00382200      -0.00022100      -0.14715800
Pt       7.01499000       2.43007000      10.00000000       0.03128900      -0.01483700      -0.10996000
Pt       2.80600000       4.86013000      10.00000000      -0.00625000      -0.00126500      -0.06854300
Pt       5.61200000       4.86013000      10.00000000      -0.00730800      -0.01240100      -0.04728300
Pt       8.41799000       4.86013000      10.00000000       0.01183900       0.00733700      -0.08029900
Pt       4.20900000       7.29020000      10.00000000       0.00319100       0.01642000      -0.08662900
Pt       7.01499000       7.29020000      10.00000000       0.01294200       0.03642500      -0.07702100
Pt       9.82099000       7.29020000      10.00000000      -0.01103300      -0.00486000      -0.09860100
Pt       1.40300000       0.81002000      12.29109000       0.08799100      -0.05449800       0.17286600
Pt       4.20900000       0.81002000      12.29109000      -0.03651500       0.05524900      -0.03754200
Pt       7.01499000       0.81002000      12.29109000      -0.03368600       0.01319100       0.24253900
Pt       2.80600000       3.24009000      12.29109000       0.04885500      -0.06668800       0.11080900
Pt       5.61200000       3.24009000      12.29109000      -0.02673200      -0.12347300       0.08679900
Pt       8.41799000       3.24009000      12.29109000      -0.02105500       0.01965900       0.19511600
Pt       4.20900000       5.67015000      12.29109000       0.03251200      -0.02092400       0.20535200
Pt       7.01499000       5.67015000      12.29109000      -0.02356700       0.04870000       0.12965400
Pt       9.82099000       5.67015000      12.29109000      -0.00244000       0.05895100       0.22055500
Pt       5.61200000       8.10022000      12.29109000       0.00753700       0.04395700       0.18545300
Pt       8.41799000       8.10022000      12.29109000       0.07642400       0.04463800       0.09818100
Pt      11.22399000       8.10022000      12.29109000      -0.08541200       0.00576800       0.13057100
Pt       2.80600000       1.62004000      14.58218000       0.01355100      -0.01604000      -0.29312600
Pt       5.61200000       1.62004000      14.58218000       0.01116500       0.04609900      -0.22506400
54
Lattice="8.417993093 0.0 0.0 5.611995395 9.720261156 0.0 0.0 0.0 29.657262579" Properties=species:S:1:pos:R:3:forces:R:3 energy=-324.89471768 pbc="T T T"
C        4.20900000       4.86013000      18.49926000      -0.27019700       0.54425900      -2.89579100
C        7.01499000       0.81002000      18.27026000       1.33583500      -1.90599100      -3.38528300
C        5.61200000       2.43007000      18.49926000      -1.84944000       1.69867000      -2.41336000
O        4.20900000       4.86013000      19.65726000      -0.05584300       0.08142300       1.39800600
O        5.61200000       2.43007000      19.65726000      -1.10407400       1.29816800       1.04876900
O        7.01499000       0.81002000      19.42826000       1.65877800      -1.87909500       2.98780700
Pt       4.20900000       4.05011000      14.58218000      -0.05241900      -0.08250800      -0.65324600
Pt       7.01499000       4.05011000      14.58218000      -0.04435700      -0.05726000       0.02145200
Pt      11.22399000       6.48017000      14.58218000      -0.01973400      -0.01155100      -0.30757200
Pt       5.61200000       6.48017000      14.58218000       0.03483800      -0.01451100      -0.33804200
Pt       8.41799000       6.48017000      14.58218000       0.00058000       0.05619000      -0.31804200
Pt      12.62699000       8.91024000      14.58218000      -0.01537200      -0.11942000      -0.44902700
Pt       7.01499000       8.91024000      14.58218000      -0.08588400       0.07036500      -0.21130900
Pt       9.82099000       8.91024000      14.58218000       0.10451900       0.03840300      -0.16132200
Pt       0.00000000       0.00000000      16.87326000       0.23567400      -0.19264000       0.76405700
Pt       2.80600000       0.00000000      16.87326000      -0.13992100      -0.08249900      -0.05795800
Pt       9.82099000       4.05011000      14.58218000       0.12505800       0.13522600      -0.04155600
Pt       4.20900000       2.43007000      16.87326000       0.19791000      -0.57002000       1.26161500
Pt       7.01499000       2.43007000      16.87326000      -0.02774400       0.49743300       1.42137700
Pt       2.80600000       4.86013000      16.87326000       0.17211000      -0.01933500       1.30748200
Pt       5.61200000       4.86013000      16.87326000      -0.26470700       0.50359000       1.20123100
Pt       8.41799000       4.86013000      16.87326000       0.13923900       0.16193200      -0.05136100
Pt       4.20900000       7.29020000      16.87326000       0.00725300       0.14065600      -0.12917900
Pt       7.01499000       7.29020000      16.87326000       0.14215900       0.08703900       0.02369400
Pt       9.82099000       7.29020000      16.87326000      -0.15736200       0.12355000      -0.02262500
Pt       5.61200000       0.00000000      16.87326000      -0.21307300      -0.73188500       0.59534000
Pt       1.40300000       2.43007000      16.87326000       0.19975300       0.10179000      -0.15671200
Pt       0.00000000       0.00000000      10.00000000      -0.04779600      -0.00293100      -0.10139000
Pt       8.41799000       1.62004000      14.58218000      -0.04252900       0.16861700      -0.29820900
Pt       2.80600000       0.00000000      10.00000000       0.02137400      -0.05032900      -0.07168900
Pt       5.61200000       0.00000000      10.00000000       0.01973400       0.02877400      -0.10438800
Pt       1.40300000       2.43007000      10.00000000       0.04088200      -0.05223000      -0.08230700
Pt       4.20900000       2.43007000      10.00000000       0.00040400      -0.00576500      -0.08231200
Pt       7.01499000       2.43007000      10.00000000      -0.03859200      -0.04493000      -0.10488100
Pt       2.80600000       4.86013000      10.00000000      -0.01716000       0.00980700      -0.05876600
Pt       5.61200000       4.86013000      10.00000000       0.00939800       0.02696500      -0.05380300
Pt       8.41799000       4.86013000      10.00000000      -0.00168900       0.01203500      -0.01350500
Pt       4.20900000       7.29020000      10.00000000       0.01198800       0.01903000      -0.07885600
Pt       7.01499000       7.29020000      10.00000000      -0.04078400       0.02998900      -0.14095100
Pt       9.82099000       7.29020000      10.00000000       0.01461300      -0.00769600      -0.08810100
Pt       1.40300000       0.81002000      12.29109000       0.00676600      -0.09091000       0.06048900
Pt       4.20900000       0.81002000      12.29109000      -0.06420800      -0.02059100       0.17293900
Pt       7.01499000       0.81002000      12.29109000       0.03681700      -0.00418500       0.21808100
Pt       2.80600000       3.24009000      12.29109000      -0.02233000      -0.01328500       0.21491000
Pt       5.61200000       3.24009000      12.29109000       0.03146700       0.00925600       0.20272800
Pt       8.41799000       3.24009000      12.29109000      -0.01310000      -0.07141000       0.05966400
Pt       4.20900000       5.67015000      12.29109000      -0.01137000       0.05527400       0.17849500
Pt       7.01499000       5.67015000      12.29109000       0.01087100       0.10285400       0.11245100
Pt       9.82099000       5.67015000      12.29109000       0.00431200       0.01057600       0.22406900
Pt       5.61200000       8.10022000      12.29109000       0.08764900       0.00487000       0.08869700
Pt       8.41799000       8.10022000      12.29109000      -0.02813300      -0.08753700       0.02478900
Pt      11.22399000       8.10022000      12.29109000      -0.05365000       0.03824900       0.11429200
Pt       2.80600000       1.62004000      14.58218000       0.12253000       0.13955400      -0.00988300
Pt       5.61200000       1.62004000      14.58218000      -0.09104200      -0.07603100      -0.82101200
54
Lattice="8.417993093 0.0 0.0 5.611995395 9.720261156 0.0 0.0 0.0 29.428262579" Properties=species:S:1:pos:R:3:forces:R:3 energy=-326.95569228 pbc="T T T"
C        7.01499000       8.91024000      18.27026000       0.18090000      -0.08535300      -3.05375600
C        7.01499000       0.81002000      18.27026000      -0.17485600       0.10165700      -3.05088000
C        4.20900000       5.67015000      18.27026000      -0.01263800       0.00705000      -3.33907300
O        7.01499000       8.91024000      19.42826000       0.05591900      -0.05014500       2.95989500
O        4.20900000       5.67015000      19.42826000      -0.00234700       0.00611400       3.04907500
O        7.01499000       0.81002000      19.42826000      -0.05678500       0.03727000       2.97603000