68
Lattice="11.223990791 0.0 0.0 5.611995395 9.720261156 0.0 0.0 0.0 29.657262579" Properties=species:S:1:pos:R:3:forces:R:3 energy=-403.28195487 pbc="T T T"
C        5.61200000       2.43007000      18.49926000      -0.00839500       0.05189300      -3.09262300
C        8.41799000       6.48017000      18.27026000      -0.01275000       0.00835600      -3.38146800
O        5.61200000       2.43007000      19.65726000       0.00034300      -0.01507900       1.50947700
O        8.41799000       6.48017000      19.42826000       0.00288000      -0.00399300       3.09136000
Pt      12.62699000       7.29020000      16.87326000       0.02576000       0.01534000       0.05859000
Pt       8.41799000       1.62004000      14.58218000      -0.13224000       0.10096600      -0.03721300
Pt      12.62699000       4.05011000      14.58218000      -0.01124800       0.00907000      -0.28783500
Pt       4.20900000       4.05011000      14.58218000      -0.02990800       0.01511300      -0.33211600
Pt       7.01499000       4.05011000      14.58218000       0.05651600       0.00516700      -0.29884600
Pt       9.82099000       4.05011000      14.58218000      -0.00925500      -0.01255700      -0.24556300
Pt      14.02999000       6.48017000      14.58218000       0.00315800      -0.01168400      -0.26791700
Pt       5.61200000       6.48017000      14.58218000       0.00387700      -0.00255900      -0.23499500
Pt       8.41799000       6.48017000      14.58218000      -0.00956500       0.01622300      -0.59724100
Pt      11.22399000       6.48017000      14.58218000       0.00371200       0.02366600      -0.23632300
Pt      15.43299000       8.91024000      14.58218000       0.00191100       0.00640600      -0.28538700
Pt       7.01499000       8.91024000      14.58218000      -0.02177500      -0.01254900      -0.27314000
Pt       9.82099000       8.91024000      14.58218000       0.03194900      -0.01441400      -0.23176400
Pt      12.62699000       8.91024000      14.58218000      -0.00728600      -0.00480700      -0.24505900
Pt       0.00000000       0.00000000      16.87326000      -0.01432100       0.03798100       0.08957600
Pt       5.61200000       1.62004000      14.58218000      -0.02470200      -0.07946500      -0.57085600
Pt       8.41799000       0.00000000      16.87326000       0.12688600      -0.07596400       0.01519100
Pt       1.40300000       2.43007000      16.87326000      -0.06132800      -0.01976800       0.08904500
Pt       4.20900000       2.43007000      16.87326000       0.23293300      -0.09309900       1.40870700
Pt       7.01499000       2.43007000      16.87326000      -0.24039300      -0.15570100       1.33877900
Pt       9.82099000       2.43007000      16.87326000       0.05087500      -0.03735100       0.02639200
Pt       2.80600000       4.86013000      16.87326000      -0.10625900       0.14094800       0.06065300
Pt       5.61200000       4.86013000      16.87326000      -0.31477000       0.37994600      -0.16534200
Pt       8.41799000       4.86013000      16.87326000       0.12521800      -0.10857800       0.61623800
Pt      11.22399000       4.86013000      16.87326000       0.31366700      -0.18884900      -0.05936500
Pt       4.20900000       7.29020000      16.87326000      -0.03962400      -0.02766400       0.08279100
Pt       7.01499000       7.29020000      16.87326000      -0.20737000       0.11465800       0.67129400
Pt       9.82099000       7.29020000      16.87326000       0.20545000       0.12216900       0.67324200
Pt       2.80600000       0.00000000      16.87326000      -0.12324800       0.28164200      -0.13564400
Pt       5.61200000       0.00000000      16.87326000       0.02576200      -0.50081000      -0.01891200
Pt       0.00000000       0.00000000      10.00000000       0.00046400      -0.06038600      -0.18616200
Pt      14.02999000       8.10022000      12.29109000       0.00587900      -0.01349900       0.19021900
Pt       2.80600000       0.00000000      10.00000000      -0.00133400      -0.00938200      -0.03613300
Pt       5.61200000       0.00000000      10.00000000      -0.00004400      -0.00256000      -0.06286200
Pt       8.41799000       0.00000000      10.00000000       0.00751300      -0.00665000      -0.03255800
Pt       1.40300000       2.43007000      10.00000000       0.03737600       0.02059000      -0.08582000
Pt       4.20900000       2.43007000      10.00000000      -0.03590400       0.03078400      -0.08711200
Pt       7.01499000       2.43007000      10.00000000      -0.00991100       0.00254900      -0.04479200
Pt       9.82099000       2.43007000      10.00000000       0.00594400      -0.01230900      -0.03964700
Pt       2.80600000       4.86013000      10.00000000      -0.00885600      -0.05215900      -0.10283000
Pt       5.61200000       4.86013000      10.00000000       0.00191500      -0.01076100      -0.04088400
Pt       8.41799000       4.86013000      10.00000000       0.01305200       0.01021100      -0.05034600
Pt      11.22399000       4.86013000      10.00000000       0.00016300       0.00178700      -0.04007600
Pt       4.20900000       7.29020000      10.00000000       0.01891400       0.03828200      -0.06531100
Pt       7.01499000       7.29020000      10.00000000      -0.01299300       0.03405400      -0.05843900
Pt       9.82099000       7.29020000      10.00000000       0.00034100      -0.00373600      -0.04869100
Pt      11.22399000       1.62004000      14.58218000       0.02037300      -0.00975100      -0.29086400
Pt      12.62699000       7.29020000      10.00000000      -0.00241700      -0.00409800      -0.04972000
Pt       4.20900000       0.81002000      12.29109000      -0.02848600       0.04416200       0.10746500
Pt       7.01499000       0.81002000      12.29109000       0.03486000      -0.01460000       0.17099500
Pt       9.82099000       0.81002000      12.29109000       0.10677100      -0.04023200       0.12272700
Pt       2.80600000       3.24009000      12.29109000       0.00713300      -0.01134700       0.25075000
Pt       5.61200000       3.24009000      12.29109000      -0.04577000      -0.02213000       0.17548500
Pt       8.41799000       3.24009000      12.29109000      -0.00786900      -0.00200600       0.25496400
Pt      11.22399000       3.24009000      12.29109000       0.04276800      -0.02592500       0.13134200
Pt       4.20900000       5.67015000      12.29109000      -0.06792200       0.01881500       0.05580000
Pt       7.01499000       5.67015000      12.29109000      -0.02835500       0.02397200       0.12408400
Pt       9.82099000       5.67015000      12.29109000       0.03133700      -0.02955700       0.20050100
Pt      12.62699000       5.67015000      12.29109000       0.05915900      -0.02538500       0.14246400
Pt       5.61200000       8.10022000      12.29109000       0.01355900       0.01908800       0.24853900
Pt       8.41799000       8.10022000      12.29109000      -0.01103900       0.03141600       0.18118000
Pt      11.22399000       8.10022000      12.29109000      -0.01115700       0.00706000       0.22958700
Pt       1.40300000       0.81002000      12.29109000      -0.11463600       0.01044700       0.06090400
Pt       2.80600000       1.62004000      14.58218000       0.14270900       0.09860400      -0.05848700
68
Lattice="11.223990791 0.0 0.0 5.611995395 9.720261156 0.0 0.0 0.0 29.657262579" Properties=species:S:1:pos:R:3:forces:R:3 energy=-403.30097353 pbc="T T T"
C        9.82099000       0.00000000      18.49926000      -0.00703200       0.05626800      -3.09074700
C        8.41799000       8.10022000      18.27026000       0.00775100      -0.00656500      -3.40972700
O        9.82099000       0.00000000      19.65726000       0.00351600      -0.01836700       1.50534200
O        8.41799000       8.10022000      19.42826000      -0.00220300       0.00145700       3.10582000
Pt      12.62699000       7.29020000      16.87326000      -0.12039700      -0.09692100      -0.03104300
Pt       8.41799000       1.62004000      14.58218000      -0.03675300       0.01533300      -0.29034000
Pt      12.62699000       4.05011000      14.58218000      -0.00114000       0.01224100      -0.29675700
Pt       4.20900000       4.05011000      14.58218000      -0.00724900       0.00080300      -0.28645200
Pt       7.01499000       4.05011000      14.58218000       0.00364000       0.00387600      -0.24915400
Pt       9.82099000       4.05011000      14.58218000       0.00178200      -0.04692600      -0.25267700
Pt      14.02999000       6.48017000      14.58218000       0.01328700      -0.00557700      -0.28333100
Pt       5.61200000       6.48017000      14.58218000       0.09010300       0.04618000      -0.13553600
Pt       8.41799000       6.48017000      14.58218000      -0.00120700      -0.08031400      -0.49219600
Pt      11.22399000       6.48017000      14.58218000      -0.10812000       0.07048300      -0.18192600
Pt      15.43299000       8.91024000      14.58218000      -0.01177200      -0.09779300      -0.55565600
Pt       7.01499000       8.91024000      14.58218000      -0.20337000       0.14418400      -0.25836700
Pt       9.82099000       8.91024000      14.58218000       0.07497900       0.01714400      -0.48682300
Pt      12.62699000       8.91024000      14.58218000       0.14377900       0.11016900      -0.03660600
Pt       0.00000000       0.00000000      16.87326000      -0.56948900       0.09364600       1.28738100
Pt       5.61200000       1.62004000      14.58218000       0.00095900       0.01199500      -0.25308200
Pt       8.41799000       0.00000000      16.87326000       0.23400600      -0.10922300       1.38310100
Pt       1.40300000       2.43007000      16.87326000       0.12805900       0.13597000      -0.01353500
Pt       4.20900000       2.43007000      16.87326000      -0.01713100       0.00141900       0.06468800
Pt       7.01499000       2.43007000      16.87326000      -0.12082700       0.12599700       0.04350000
Pt       9.82099000       2.43007000      16.87326000       0.01320400       0.56883900      -0.02311300
Pt       2.80600000       4.86013000      16.87326000       0.00303600       0.01255300       0.10515700
Pt       5.61200000       4.86013000      16.87326000      -0.01519900       0.02174500       0.04251500
Pt       8.41799000       4.86013000      16.87326000      -0.01436100      -0.40651800       0.00443900
Pt      11.22399000       4.86013000      16.87326000       0.02071700      -0.02144500       0.08332700
Pt       4.20900000       7.29020000      16.87326000      -0.01146900      -0.57174500      -0.03296600
Pt       7.01499000       7.29020000      16.87326000      -0.18254900      -0.26176500       0.60862400
Pt       9.82099000       7.29020000      16.87326000       0.29887200      -0.17579300       0.70112700
Pt       2.80600000       0.00000000      16.87326000       0.04492000       0.35514600       0.63705000
Pt       5.61200000       0.00000000      16.87326000       0.29104500       0.18423900      -0.05613200
Pt       0.00000000       0.00000000      10.00000000      -0.00918800       0.01032000      -0.04677400
Pt      14.02999000       8.10022000      12.29109000      -0.03818800      -0.01959100       0.16078700
Pt       2.80600000       0.00000000      10.00000000       0.00545700      -0.02180400      -0.03535400
Pt       5.61200000       0.00000000      10.00000000      -0.00268400      -0.00694500      -0.04014400
Pt       8.41799000       0.00000000      10.00000000       0.00871000       0.01330900      -0.05510600
Pt       1.40300000       2.43007000      10.00000000       0.01236200       0.02129400      -0.04782700
Pt       4.20900000       2.43007000      10.00000000      -0.00729200       0.02609800      -0.02819200
Pt       7.01499000       2.43007000      10.00000000      -0.00108500      -0.00058400      -0.05779400
Pt       9.82099000       2.43007000      10.00000000      -0.00343600      -0.01077100      -0.04912800
Pt       2.80600000       4.86013000      10.00000000       0.00442100       0.00054300      -0.20653500
Pt       5.61200000       4.86013000      10.00000000      -0.02490200      -0.00384700      -0.03728500
Pt       8.41799000       4.86013000      10.00000000       0.01982000       0.03795300      -0.06383300
Pt      11.22399000       4.86013000      10.00000000      -0.00543300       0.02529800      -0.05864800
Pt       4.20900000       7.29020000      10.00000000      -0.01496500      -0.01452200      -0.04691300
Pt       7.01499000       7.29020000      10.00000000       0.01786300       0.00131800      -0.03734100
Pt       9.82099000       7.29020000      10.00000000      -0.00966200      -0.05390600      -0.17708500
Pt      11.22399000       1.62004000      14.58218000       0.03368800       0.02724300      -0.29775500
Pt      12.62699000       7.29020000      10.00000000       0.00801300      -0.01291400      -0.02967600
Pt       4.20900000       0.81002000      12.29109000      -0.01374200       0.04679600       0.16459300
Pt       7.01499000       0.81002000      12.29109000      -0.00273000      -0.01642800       0.23643000
Pt       9.82099000       0.81002000      12.29109000       0.00800300       0.00938300       0.25044000
Pt       2.80600000       3.24009000      12.29109000      -0.00929800       0.12486900       0.11940000
Pt       5.61200000       3.24009000      12.29109000       0.00361100      -0.00436900       0.20039100
Pt       8.41799000       3.24009000      12.29109000      -0.01074100       0.04504800       0.13717500
Pt      11.22399000       3.24009000      12.29109000       0.01711800       0.04848800       0.12122100
Pt       4.20900000       5.67015000      12.29109000      -0.11268500      -0.05375600       0.12200700
Pt       7.01499000       5.67015000      12.29109000      -0.02804200      -0.01037300       0.16861200
Pt       9.82099000       5.67015000      12.29109000       0.03941200       0.02415600       0.19602200
Pt      12.62699000       5.67015000      12.29109000       0.11035800      -0.07282200       0.10702600
Pt       5.61200000       8.10022000      12.29109000       0.01557900      -0.04752600       0.14787600
Pt       8.41799000       8.10022000      12.29109000       0.09892100      -0.04051700       0.17203200
Pt      11.22399000       8.10022000      12.29109000      -0.07529000      -0.07725400       0.10191400
Pt       1.40300000       0.81002000      12.29109000       0.01040900       0.02145600       0.20413200
Pt       2.80600000       1.62004000      14.58218000       0.01222900      -0.10637800      -0.15057300
68
Lattice="11.223990791 0.0 0.0 5.611995395 9.720261156 0.0 0.0 0.0 29.886262579" Properties=species:S:1:pos:R:3:forces:R:3 energy=-403.36376179 pbc="T T T"
C        9.82099000       0.81002000      18.27026000      -0.00000000       0.00000000      -3.41139500
C        9.82099000       7.29020000      18.72826000      -0.00000000       0.00000000       0.14749000
O        9.82099000       0.81002000      19.42826000      -0.00000000       0.00000000       3.15608600
O        9.82099000       7.29020000      19.88626000      -0.00000000       0.00000000      -0.09240100
Pt      12.62699000       7.29020000      16.87326000       0.43905000      -0.00323400      -0.08702100
Pt       8.41799000       1.62004000      14.58218000      -0.08793100       0.05076700      -0.42837300
Pt      12.62699000       4.05011000      14.58218000       0.01094100       0.02914500      -0.23587800
Pt       4.20900000       4.05011000      14.58218000      -0.00000000       0.00000000      -0.20058400
Pt       7.01499000       4.05011000      14.58218000      -0.01094100       0.02914500      -0.23587800
Pt       9.82099000       4.05011000      14.58218000      -0.00000000      -0.14469200      -0.10884300
Pt      14.02999000       6.48017000      14.58218000      -0.01977000      -0.02404800      -0.23587800
Pt       5.61200000       6.48017000      14.58218000       0.01977000      -0.02404800      -0.23587800
Pt       8.41799000       6.48017000      14.58218000       0.12849900       0.07418900      -0.16993900
Pt      11.22399000       6.48017000      14.58218000      -0.12849900       0.07418900      -0.16993900
Pt      15.43299000       8.91024000      14.58218000       0.00000000      -0.10153400      -0.42837300
Pt       7.01499000       8.91024000      14.58218000      -0.12530700       0.07234600      -0.10884300
Pt       9.82099000       8.91024000      14.58218000       0.00000000      -0.14837800      -0.16993900
Pt      12.62699000       8.91024000      14.58218000       0.12530700       0.07234600      -0.10884300
Pt       0.00000000       0.00000000      16.87326000       0.31250100      -0.18042300       0.62518600
Pt       5.61200000       1.62004000      14.58218000      -0.03071100      -0.00509800      -0.23587800
Pt       8.41799000       0.00000000      16.87326000      -0.31250100      -0.18042300       0.62518600
Pt       1.40300000       2.43007000      16.87326000       0.32795400       0.18934400      -0.03420100
Pt       4.20900000       2.43007000      16.87326000      -0.00000000      -0.00515900       0.08698100
Pt       7.01499000       2.43007000      16.87326000      -0.32795400       0.18934400      -0.03420100
Pt       9.82099000       2.43007000      16.87326000      -0.00000000       0.36084500       0.62518600
Pt       2.80600000       4.86013000      16.87326000      -0.00446700       0.00257900       0.08698100
Pt       5.61200000       4.86013000      16.87326000       0.00446700       0.00257900       0.08698100
Pt       8.41799000       4.86013000      16.87326000      -0.22232600      -0.37861200      -0.08702100
Pt      11.22399000       4.86013000      16.87326000       0.22232600      -0.37861200      -0.08702100
Pt       4.20900000       7.29020000      16.87326000      -0.00000000      -0.37868800      -0.03420100
Pt       7.01499000       7.29020000      16.87326000      -0.43905000      -0.00323400      -0.08702100
Pt       9.82099000       7.29020000      16.87326000      -0.00000000       0.00000000       1.01486700
Pt       2.80600000       0.00000000      16.87326000      -0.21672400       0.38184600      -0.08702100
Pt       5.61200000       0.00000000      16.87326000       0.21672400       0.38184600      -0.08702100
Pt       0.00000000       0.00000000      10.00000000      -0.00792100       0.00457300      -0.05879900
Pt      14.02999000       8.10022000      12.29109000      -0.03999500       0.01125600       0.17041900
Pt       2.80600000       0.00000000      10.00000000       0.00431600      -0.01314100      -0.04441000
Pt       5.61200000       0.00000000      10.00000000      -0.00431600      -0.01314100      -0.04441000
Pt       8.41799000       0.00000000      10.00000000       0.00792100       0.00457300      -0.05879900
Pt       1.40300000       2.43007000      10.00000000       0.02190800       0.01264900      -0.06746700
Pt       4.20900000       2.43007000      10.00000000      -0.00000000       0.06268200      -0.13253300
Pt       7.01499000       2.43007000      10.00000000      -0.02190800       0.01264900      -0.06746700
Pt       9.82099000       2.43007000      10.00000000      -0.00000000      -0.00914700      -0.05879900
Pt       2.80600000       4.86013000      10.00000000       0.05428400      -0.03134100      -0.13253300
Pt       5.61200000       4.86013000      10.00000000      -0.05428400      -0.03134100      -0.13253300
Pt       8.41799000       4.86013000      10.00000000       0.00922200       0.01030800      -0.04441000
Pt      11.22399000       4.86013000      10.00000000      -0.00922200       0.01030800      -0.04441000
Pt       4.20900000       7.29020000      10.00000000      -0.00000000      -0.02529700      -0.06746700
Pt       7.01499000       7.29020000      10.00000000       0.01353800       0.00283300      -0.04441000
Pt       9.82099000       7.29020000      10.00000000      -0.00000000       0.00000000      -0.22991600
Pt      11.22399000       1.62004000      14.58218000       0.08793100       0.05076700      -0.42837300
Pt      12.62699000       7.29020000      10.00000000      -0.01353800       0.00283300      -0.04441000
Pt       4.20900000       0.81002000      12.29109000      -0.00000000       0.07576200       0.09397200
Pt       7.01499000       0.81002000      12.29109000      -0.01025000      -0.04026500       0.17041900
Pt       9.82099000       0.81002000      12.29109000      -0.00000000       0.00000000       0.26689500
Pt       2.80600000       3.24009000      12.29109000      -0.00711400      -0.00410700       0.21517000
Pt       5.61200000       3.24009000      12.29109000       0.00711400      -0.00410700       0.21517000
Pt       8.41799000       3.24009000      12.29109000       0.02974500       0.02900900       0.17041900
Pt      11.22399000       3.24009000      12.29109000      -0.02974500       0.02900900       0.17041900
Pt       4.20900000       5.67015000      12.29109000      -0.00000000       0.00821400       0.21517000
Pt       7.01499000       5.67015000      12.29109000      -0.06561200      -0.03788100       0.09397200
Pt       9.82099000       5.67015000      12.29109000       0.00000000       0.14020400       0.15561200
Pt      12.62699000       5.67015000      12.29109000       0.06561200      -0.03788100       0.09397200
Pt       5.61200000       8.10022000      12.29109000       0.03999500       0.01125600       0.17041900
Pt       8.41799000       8.10022000      12.29109000       0.12142000      -0.07010200       0.15561200
Pt      11.22399000       8.10022000      12.29109000      -0.12142000      -0.07010200       0.15561200
Pt       1.40300000       0.81002000      12.29109000       0.01025000      -0.04026500       0.17041900
Pt       2.80600000       1.62004000      14.58218000       0.03071100      -0.00509800      -0.23587800
68
Lattice="11.223990791 0.0 0.0 5.611995395 9.720261156 0.0 0.0 0.0 29.657262579" Properties=species:S:1:pos:R:3:forces:R:3 energy=-403.12847112 pbc="T T T"
C        7.01499000       4.86013000      18.49926000      -0.00307200       0.04709600      -3.13250900
C        4.20900000       0.00000000      18.49926000      -0.00307200       0.04709600      -3.13250900
O        7.01499000       4.86013000      19.65726000       0.00101900      -0.01455200       1.53809300
O        4.20900000       0.00000000      19.65726000       0.00101900      -0.01455200       1.53809300
Pt      12.62699000       7.29020000      16.87326000       0.12439400      -0.08294300       0.00998600
Pt       8.41799000       1.62004000      14.58218000      -0.00040500       0.00120600      -0.24267800
Pt      12.62699000       4.05011000      14.58218000       0.00360600      -0.00830700      -0.28170300
Pt       4.20900000       4.05011000      14.58218000       0.13781600       0.06952200      -0.03092900
Pt       7.01499000       4.05011000      14.58218000      -0.00949300      -0.07562900      -0.55913200
Pt       9.82099000       4.05011000      14.58218000      -0.12972600       0.10142400      -0.03186000
Pt      14.02999000       6.48017000      14.58218000      -0.00377900       0.00999700      -0.28732500
Pt       5.61200000       6.48017000      14.58218000      -0.03612700       0.01701800      -0.33769500
Pt       8.41799000       6.48017000      14.58218000       0.04991300       0.01242100      -0.29241400
Pt      11.22399000       6.48017000      14.58218000      -0.00040500       0.00120600      -0.24267800
Pt      15.43299000       8.91024000      14.58218000       0.00360600      -0.00830700      -0.28170300
Pt       7.01499000       8.91024000      14.58218000       0.13781600       0.06952200      -0.03092900
Pt       9.82099000       8.91024000      14.58218000      -0.00949300      -0.07562900      -0.55913200
Pt      12.62699000       8.91024000      14.58218000      -0.12972600       0.10142400      -0.03186000
Pt       0.00000000       0.00000000      16.87326000      -0.04633700      -0.03674800       0.06967100
Pt       5.61200000       1.62004000      14.58218000       0.04991300       0.01242100      -0.29241400
Pt       8.41799000       0.00000000      16.87326000       0.02662400       0.00445000       0.05038200
Pt       1.40300000       2.43007000      16.87326000      -0.10920600       0.12611800       0.05035600
Pt       4.20900000       2.43007000      16.87326000      -0.12831500       0.48110400      -0.09492100
Pt       7.01499000       2.43007000      16.87326000       0.12251000      -0.41466700      -0.05445000
Pt       9.82099000       2.43007000      16.87326000       0.12439400      -0.08294300       0.00998600
Pt       2.80600000       4.86013000      16.87326000      -0.04633700      -0.03674800       0.06967100
Pt       5.61200000       4.86013000      16.87326000       0.22587700      -0.09313200       1.39911600
Pt       8.41799000       4.86013000      16.87326000      -0.22723900      -0.10065600       1.38482400
Pt      11.22399000       4.86013000      16.87326000       0.02662400       0.00445000       0.05038200
Pt       4.20900000       7.29020000      16.87326000      -0.10920600       0.12611800       0.05035600
Pt       7.01499000       7.29020000      16.87326000      -0.12831500       0.48110400      -0.09492100
Pt       9.82099000       7.29020000      16.87326000       0.12251000      -0.41466700      -0.05445000
Pt       2.80600000       0.00000000      16.87326000       0.22587700      -0.09313200       1.39911600
Pt       5.61200000       0.00000000      16.87326000      -0.22723900      -0.10065600       1.38482400
Pt       0.00000000       0.00000000      10.00000000       0.01345400       0.03130700      -0.05282900
Pt      14.02999000       8.10022000      12.29109000       0.10802800      -0.04741200       0.13423200
Pt       2.80600000       0.00000000      10.00000000      -0.01036500       0.04235200      -0.05689700
Pt       5.61200000       0.00000000      10.00000000      -0.00248900       0.00323500      -0.04661500
Pt       8.41799000       0.00000000      10.00000000      -0.00010900      -0.01151700      -0.03764700
Pt       1.40300000       2.43007000      10.00000000      -0.00725400      -0.06034400      -0.19257000
Pt       4.20900000       2.43007000      10.00000000      -0.00477900      -0.01617800      -0.03298000
Pt       7.01499000       2.43007000      10.00000000       0.01023200      -0.00005100      -0.06653600
Pt       9.82099000       2.43007000      10.00000000       0.00881800      -0.00293100      -0.03528900
Pt       2.80600000       4.86013000      10.00000000       0.01345400       0.03130700      -0.05282900
Pt       5.61200000       4.86013000      10.00000000      -0.01036500       0.04235200      -0.05689700
Pt       8.41799000       4.86013000      10.00000000      -0.00248900       0.00323500      -0.04661500
Pt      11.22399000       4.86013000      10.00000000      -0.00010900      -0.01151700      -0.03764700
Pt       4.20900000       7.29020000      10.00000000      -0.00725400      -0.06034400      -0.19257000
Pt       7.01499000       7.29020000      10.00000000      -0.00477900      -0.01617800      -0.03298000
Pt       9.82099000       7.29020000      10.00000000       0.01023200      -0.00005100      -0.06653600
Pt      11.22399000       1.62004000      14.58218000      -0.00377900       0.00999700      -0.28732500
Pt      12.62699000       7.29020000      10.00000000       0.00881800      -0.00293100      -0.03528900
Pt       4.20900000       0.81002000      12.29109000      -0.01193800       0.00821400       0.22908600
Pt       7.01499000       0.81002000      12.29109000      -0.00315200      -0.00245500       0.23272500
Pt       9.82099000       0.81002000      12.29109000       0.00386400       0.00067100       0.18697600
Pt       2.80600000       3.24009000      12.29109000      -0.11269900      -0.00689700       0.05192700
Pt       5.61200000       3.24009000      12.29109000      -0.02952100       0.02829600       0.10097700
Pt       8.41799000       3.24009000      12.29109000       0.03212000      -0.02537500       0.18198700
Pt      11.22399000       3.24009000      12.29109000       0.10802800      -0.04741200       0.13423200
Pt       4.20900000       5.67015000      12.29109000       0.00772900       0.01536300       0.24664000
Pt       7.01499000       5.67015000      12.29109000      -0.01193800       0.00821400       0.22908600
Pt       9.82099000       5.67015000      12.29109000      -0.00315200      -0.00245500       0.23272500
Pt      12.62699000       5.67015000      12.29109000       0.00386400       0.00067100       0.18697600
Pt       5.61200000       8.10022000      12.29109000      -0.11269900      -0.00689700       0.05192700
Pt       8.41799000       8.10022000      12.29109000      -0.02952100       0.02829600       0.10097700
Pt      11.22399000       8.10022000      12.29109000       0.03212000      -0.02537500       0.18198700
Pt       1.40300000       0.81002000      12.29109000       0.00772900       0.01536300       0.24664000
Pt       2.80600000       1.62004000      14.58218000      -0.03612700       0.01701800      -0.33769500
68
Lattice="11.223990791 0.0 0.0 5.611995395 9.720261156 0.0 0.0 0.0 29.657262579" Properties=species:S:1:pos:R:3:forces:R:3 energy=-403.05658365 pbc="T T T"
C        2.80600000       2.43007000      18.49926000      -0.58602700      -0.10082600      -2.90453500
C        5.61200000       3.24009000      18.27026000       0.51827200       0.19148900      -3.27351900
O        2.80600000       2.43007000      19.65726000      -0.00097400      -0.00543500       1.36277500
O        5.61200000       3.24009000      19.42826000       0.08924400       0.03977300       3.03020100
Pt      12.62699000       7.29020000      16.87326000      -0.00051700      -0.02192000       0.11689100
Pt       8.41799000       1.62004000      14.58218000      -0.08952800       0.03183900      -0.18046300