86
Lattice="11.223990791 0.0 0.0 5.611995395 9.720261156 0.0 0.0 0.0 29.886262579" Properties=species:S:1:pos:R:3:forces:R:3 energy=-537.34293252 pbc="T T T"
C        1.40300000       0.81002000      18.27026000      -1.67493500      -1.93219400      -2.78974500
C        8.41799000       2.43007000      18.49926000       3.00632700       2.16433200      -2.24467700
C       15.43299000       8.91024000      18.27026000      -0.09888900      -0.20929200      -2.91324800
C       11.22399000       8.10022000      18.27026000       0.39654700      -0.84039100      -2.78096200
C        7.01499000       0.81002000      18.27026000       0.76134900      -3.26852500      -2.61596500
C        5.61200000       2.43007000      18.49926000       0.03199600       4.27926900      -1.59443400
C        7.01499000       7.29020000      18.72826000      -0.06084700      -0.22981100       0.60566400
C        9.82099000       5.67015000      18.27026000      -0.25616900      -0.49481800      -3.06364100
C        4.20900000       0.81002000      18.27026000      -0.43914500      -3.22139300      -2.53611500
C       12.62699000       4.05011000      18.27026000      -1.17423300       2.28911000      -2.77668900
C        2.80600000       2.43007000      18.49926000       1.40391300       2.13459500      -1.20999700
O        8.41799000       2.43007000      19.65726000       1.10942300       1.38019900       0.95783400
O        7.01499000       0.81002000      19.42826000       0.01720700      -3.43821100       2.55959800
O        9.82099000       5.67015000      19.42826000      -0.12303100      -0.09759800       2.95355700
O        1.40300000       0.81002000      19.42826000      -1.64760200      -1.75131500       2.88482800
O       12.62699000       4.05011000      19.42826000      -1.61518400       1.81680000       2.77892200
O        4.20900000       0.81002000      19.42826000       0.02519900      -3.49489800       2.51801100
O        7.01499000       7.29020000      19.88626000       0.01507400       0.03029500      -0.34560700
O        5.61200000       2.43007000      19.65726000      -0.00419300       2.67812000       0.57715800
O       11.22399000       8.10022000      19.42826000       0.08696700      -0.08466500       2.65705900
O       15.43299000       8.91024000      19.42826000       0.00020300      -0.06090800       2.99453100
O        2.80600000       2.43007000      19.65726000       1.11269300       1.30822700       0.20131300
Pt      15.43299000       8.91024000      14.58218000      -0.04606600       0.15852200      -0.37152600
Pt       7.01499000       8.91024000      14.58218000       0.09542400      -0.15164800      -0.26548700
Pt       9.82099000       8.91024000      14.58218000      -0.04026500      -0.04376600      -0.31008100
Pt      12.62699000       8.91024000      14.58218000      -0.01477200       0.06978800      -0.50693200
Pt       0.00000000       0.00000000      16.87326000      -0.14559700       0.08863200       0.56837200
Pt       2.80600000       0.00000000      16.87326000       0.07445000      -0.47054400       0.29242900
Pt       5.61200000       0.00000000      16.87326000       0.01104600      -0.64930300       0.35184900
Pt       8.41799000       0.00000000      16.87326000       0.19355400      -0.41835600       0.44495900
Pt       1.40300000       2.43007000      16.87326000      -0.23919300       0.09439300       0.98478100
Pt       2.80600000       4.86013000      16.87326000      -0.11737400       0.72161100       0.43158800
Pt       7.01499000       2.43007000      16.87326000       0.14883000       0.94145700       1.75358900
Pt       9.82099000       2.43007000      16.87326000      -0.81562100      -0.06821300       1.05633700
Pt       5.61200000       4.86013000      16.87326000      -0.17418100       0.50065500      -0.32995600
Pt       8.41799000       4.86013000      16.87326000       0.13348400       0.26851000       0.31217900
Pt      11.22399000       4.86013000      16.87326000       0.19806300      -0.19894400       0.58947200
Pt       4.20900000       7.29020000      16.87326000      -0.26699000      -0.21037300       0.35870700
Pt       7.01499000       7.29020000      16.87326000      -0.10128000      -0.29276700       0.55573500
Pt       9.82099000       7.29020000      16.87326000       0.00305900      -0.16026800       0.60685700
Pt      11.22399000       6.48017000      14.58218000       0.02260700      -0.09995000      -0.72486400
Pt       4.20900000       2.43007000      16.87326000      -0.09633200       0.80421400       2.01494700
Pt      12.62699000       7.29020000      16.87326000       0.16648100      -0.11650400       0.39797800
Pt       0.00000000       0.00000000      10.00000000       0.00830600      -0.05140600      -0.13083700
Pt      14.02999000       6.48017000      14.58218000      -0.04563400       0.08607900      -0.22843300
Pt       4.20900000       0.81002000      12.29109000      -0.01756100       0.03209800       0.06472800
Pt       1.40300000       0.81002000      12.29109000       0.00471000       0.00495500       0.14755800
Pt      12.62699000       7.29020000      10.00000000       0.01010700      -0.00455800      -0.22107200
Pt       9.82099000       7.29020000      10.00000000       0.01002100      -0.01720100      -0.16313800
Pt       7.01499000       7.29020000      10.00000000       0.00303500      -0.00268200      -0.24128200
Pt       4.20900000       7.29020000      10.00000000      -0.01900300       0.00547700      -0.23310000
Pt      11.22399000       4.86013000      10.00000000       0.02609600       0.02762600      -0.17307300
Pt       8.41799000       4.86013000      10.00000000       0.03170000       0.05165100      -0.09283200
Pt       5.61200000       4.86013000      10.00000000      -0.00393600      -0.00575300      -0.16690600
Pt       2.80600000       4.86013000      10.00000000      -0.03835200      -0.00372500      -0.14063100
Pt       9.82099000       2.43007000      10.00000000       0.00705800      -0.01200200      -0.04281600
Pt       7.01499000       2.43007000      10.00000000      -0.01396900      -0.01215500      -0.10325100
Pt       4.20900000       2.43007000      10.00000000      -0.00384300      -0.01160100      -0.18406800
Pt       1.40300000       2.43007000      10.00000000       0.00089800       0.05430600      -0.12593400
Pt       8.41799000       0.00000000      10.00000000      -0.01002500      -0.04275100      -0.18109000
Pt       5.61200000       0.00000000      10.00000000      -0.00158400      -0.00456700      -0.11747800
Pt       2.80600000       0.00000000      10.00000000       0.01660000      -0.03649800      -0.13135300
Pt       7.01499000       0.81002000      12.29109000       0.08244700      -0.05677500       0.19687600
Pt       9.82099000       0.81002000      12.29109000       0.00262000      -0.07002900       0.21424200
Pt       2.80600000       3.24009000      12.29109000       0.10240900      -0.02033800       0.10099600
Pt       5.61200000       3.24009000      12.29109000      -0.05230800       0.05979200       0.03936900
Pt       9.82099000       4.05011000      14.58218000       0.07388300       0.00770700      -0.46054300
Pt       7.01499000       4.05011000      14.58218000       0.19386800      -0.15171700      -0.13153600
Pt       4.20900000       4.05011000      14.58218000      -0.00583100      -0.14900700      -0.28165900
Pt      12.62699000       4.05011000      14.58218000      -0.20534700      -0.04955000      -0.41325700
Pt       8.41799000       1.62004000      14.58218000      -0.11683600       0.05585300      -0.59009900
Pt       5.61200000       1.62004000      14.58218000      -0.02683900       0.15026000      -0.56501200
Pt       2.80600000       1.62004000      14.58218000       0.10018100       0.11699400      -0.95207600
Pt      11.22399000       1.62004000      14.58218000       0.02391600       0.28334800      -0.02126600
Pt       5.61200000       6.48017000      14.58218000       0.14034200       0.09605200      -0.22882300
Pt      14.02999000       8.10022000      12.29109000       0.02413500      -0.08063000      -0.00859500
Pt       8.41799000       8.10022000      12.29109000      -0.05032700      -0.08777500       0.10679900
Pt       5.61200000       8.10022000      12.29109000       0.02056600      -0.14429600       0.08909800
Pt      12.62699000       5.67015000      12.29109000       0.04205700       0.04823500       0.07956800
Pt       9.82099000       5.67015000      12.29109000       0.06000000      -0.01419900       0.14630200
Pt       7.01499000       5.67015000      12.29109000      -0.08636200       0.00849100       0.06581300
Pt       4.20900000       5.67015000      12.29109000       0.01102600       0.00715900       0.04784900
Pt      11.22399000       3.24009000      12.29109000       0.00228700       0.03073400       0.19226700
Pt       8.41799000       3.24009000      12.29109000      -0.07990900       0.04231500       0.11559000
Pt      11.22399000       8.10022000      12.29109000       0.00141700      -0.01998600       0.03620600
Pt       8.41799000       6.48017000      14.58218000      -0.08401900       0.15599700      -0.34142600
86
Lattice="11.223990791 0.0 0.0 5.611995395 9.720261156 0.0 0.0 0.0 29.886262579" Properties=species:S:1:pos:R:3:forces:R:3 energy=-539.78815263 pbc="T T T"
C        9.82099000       2.43007000      18.72826000      -0.10125600       0.29886300       0.30557400
C        7.01499000       4.86013000      18.49926000       2.40232700       1.93243500      -2.09519300
C        4.20900000       0.00000000      18.49926000       1.22365100       2.06073100      -2.20267700
C        8.41799000       8.10022000      18.27026000      -1.56731100      -1.49564600      -3.35062600
C        0.00000000       0.00000000      18.72826000       0.23279400      -0.31354500       0.40740800
C        2.80600000       3.24009000      18.27026000      -1.90555400      -1.66759500      -3.16987700
C        7.01499000       0.00000000      18.49926000      -1.25806900       2.09164300      -2.34340900
C        9.82099000       5.67015000      18.27026000       0.81194200      -0.26116000      -3.18511600
C       14.02999000       8.10022000      18.27026000       1.14624700      -2.00686200      -3.54534800
C        5.61200000       3.24009000      18.27026000       0.50205700      -3.74727100      -3.17858100
C        4.20900000       4.86013000      18.49926000      -0.90403600       4.15795100      -1.73476200
O        7.01499000       4.86013000      19.65726000       1.08608800       1.38600900       0.87273700
O        0.00000000       0.00000000      19.88626000       0.07066800      -0.10622900      -0.21450300
O        9.82099000       5.67015000      19.42826000       0.13391400      -0.07716100       2.97636300
O        9.82099000       2.43007000      19.88626000      -0.10131000       0.11454600      -0.16749000
O        5.61200000       3.24009000      19.42826000       0.05843100      -3.58669300       2.87018300
O       14.02999000       8.10022000      19.42826000       1.66899900      -1.85710100       3.13354700
O        7.01499000       0.00000000      19.65726000      -1.10223200       1.39184300       0.96939500
O        2.80600000       3.24009000      19.42826000      -1.69013900      -1.87054600       2.98718800
O        8.41799000       8.10022000      19.42826000      -1.71832200      -1.75533000       2.98602700
O        4.20900000       0.00000000      19.65726000       1.11341600       1.39427800       0.88639100
O        4.20900000       4.86013000      19.65726000       0.05269600       2.69707700       0.64306200
Pt      15.43299000       8.91024000      14.58218000       0.08295500       0.26024400      -0.29464500
Pt       7.01499000       8.91024000      14.58218000      -0.05327300       0.26792000      -0.34082900
Pt       9.82099000       8.91024000      14.58218000       0.21537200      -0.11100300      -0.47666100
Pt      12.62699000       8.91024000      14.58218000      -0.21582300       0.07354100      -0.68168300
Pt       0.00000000       0.00000000      16.87326000       0.15646500      -0.05465700       0.59888900
Pt       2.80600000       0.00000000      16.87326000       0.43198500       0.13293900       1.09024100
Pt       5.61200000       0.00000000      16.87326000      -0.01151200      -0.43218200       2.32602200
Pt       8.41799000       0.00000000      16.87326000      -0.56709600       0.14037900       1.05251700
Pt       1.40300000       2.43007000      16.87326000       0.31130800       0.32991300       0.34004700
Pt       2.80600000       4.86013000      16.87326000       0.00732600       0.22910300       1.24695100
Pt       7.01499000       2.43007000      16.87326000      -0.23722800       0.04161500       0.22247000
Pt       9.82099000       2.43007000      16.87326000      -0.00248800       0.05089100       0.63944600
Pt       5.61200000       4.86013000      16.87326000       0.03005000       0.83882500       1.71007000
Pt       8.41799000       4.86013000      16.87326000      -0.63451400      -0.17479500       1.45007500
Pt      11.22399000       4.86013000      16.87326000       0.08610900       0.37310600       0.35190400
Pt       4.20900000       7.29020000      16.87326000      -0.19942600       0.22553600       0.36651400
Pt       7.01499000       7.29020000      16.87326000       0.03344300       0.36890000       0.39001300
Pt       9.82099000       7.29020000      16.87326000       0.27828500      -0.31364000       0.49954300
Pt      11.22399000       6.48017000      14.58218000       0.04273300       0.17906300      -0.14721800
Pt       4.20900000       2.43007000      16.87326000      -0.04990500      -0.31542400       0.31500100
Pt      12.62699000       7.29020000      16.87326000       0.17425200      -0.40014200       0.31447800
Pt       0.00000000       0.00000000      10.00000000       0.00851600      -0.00103400      -0.22539800
Pt      14.02999000       6.48017000      14.58218000      -0.11350800      -0.21760100      -0.37171500
Pt       4.20900000       0.81002000      12.29109000      -0.01963100       0.09453000       0.14013000
Pt       1.40300000       0.81002000      12.29109000      -0.08263300      -0.06768300       0.07814400
Pt      12.62699000       7.29020000      10.00000000      -0.03877700      -0.01658900      -0.15504800
Pt       9.82099000       7.29020000      10.00000000       0.04236500       0.00384200      -0.18851800
Pt       7.01499000       7.29020000      10.00000000       0.01451000      -0.02037300      -0.14832300
Pt       4.20900000       7.29020000      10.00000000      -0.01659500      -0.01234100      -0.12258200
Pt      11.22399000       4.86013000      10.00000000      -0.01376400       0.06716300      -0.11720900
Pt       8.41799000       4.86013000      10.00000000       0.02552800       0.00797500      -0.21281100
Pt       5.61200000       4.86013000      10.00000000       0.02721400       0.02798700      -0.11906800
Pt       2.80600000       4.86013000      10.00000000      -0.02722500      -0.01439800      -0.20024200
Pt       9.82099000       2.43007000      10.00000000      -0.01354900      -0.02978800      -0.14415000
Pt       7.01499000       2.43007000      10.00000000       0.00356500      -0.00346800      -0.02791700
Pt       4.20900000       2.43007000      10.00000000      -0.01985700      -0.00704700      -0.18315000
Pt       1.40300000       2.43007000      10.00000000       0.04151400      -0.00863300      -0.11358600
Pt       8.41799000       0.00000000      10.00000000      -0.01644400      -0.01233700      -0.19537300
Pt       5.61200000       0.00000000      10.00000000      -0.03757100      -0.03235500      -0.15124800
Pt       2.80600000       0.00000000      10.00000000       0.04093700      -0.02552500      -0.15433800
Pt       7.01499000       0.81002000      12.29109000       0.07206600      -0.05948900       0.10828400
Pt       9.82099000       0.81002000      12.29109000      -0.00366000      -0.10249000       0.07137400
Pt       2.80600000       3.24009000      12.29109000       0.00519200      -0.00530900       0.06980600
Pt       5.61200000       3.24009000      12.29109000      -0.05926000      -0.02635600       0.06674800
Pt       9.82099000       4.05011000      14.58218000      -0.13263000      -0.07875200      -0.29731800
Pt       7.01499000       4.05011000      14.58218000       0.07541000       0.17937700      -0.49277600
Pt       4.20900000       4.05011000      14.58218000       0.13828400       0.06835000      -0.97152300
Pt      12.62699000       4.05011000      14.58218000      -0.02343600       0.24178200      -0.18981800
Pt       8.41799000       1.62004000      14.58218000       0.04354800      -0.00033100       0.01755900
Pt       5.61200000       1.62004000      14.58218000      -0.10036900      -0.04109500      -0.43050600
Pt       2.80600000       1.62004000      14.58218000       0.09453900      -0.16165900      -0.19608700
Pt      11.22399000       1.62004000      14.58218000      -0.03060800      -0.01049300      -0.11669900
Pt       5.61200000       6.48017000      14.58218000       0.01878400      -0.07714600      -0.03358700
Pt      14.02999000       8.10022000      12.29109000       0.02427200       0.04733000       0.07488100
Pt       8.41799000       8.10022000      12.29109000       0.00269900       0.01628200       0.07710200
Pt       5.61200000       8.10022000      12.29109000      -0.00704600      -0.00056400       0.12403200
Pt      12.62699000       5.67015000      12.29109000       0.07077800      -0.05693300       0.11451800
Pt       9.82099000       5.67015000      12.29109000      -0.08131700      -0.00044900       0.10096500
Pt       7.01499000       5.67015000      12.29109000       0.03465000      -0.04505200       0.08328500
Pt       4.20900000       5.67015000      12.29109000      -0.04870700      -0.01212400       0.05314200
Pt      11.22399000       3.24009000      12.29109000       0.00287000      -0.03603400       0.09795500
Pt       8.41799000       3.24009000      12.29109000       0.06025100       0.03731500       0.15019800
Pt      11.22399000       8.10022000      12.29109000      -0.00627400      -0.03796300       0.13094300
Pt       8.41799000       6.48017000      14.58218000       0.01134800      -0.06089300      -0.82350800
86
Lattice="11.223990791 0.0 0.0 5.611995395 9.720261156 0.0 0.0 0.0 29.886262579" Properties=species:S:1:pos:R:3:forces:R:3 energy=-537.88074285 pbc="T T T"
C        8.41799000       2.43007000      18.49926000      -0.04242700       0.41879400      -2.55211600
C        4.20900000       0.81002000      18.27026000      -0.36264300      -0.49754100      -2.53020400
C        7.01499000       7.29020000      18.72826000       0.02211000      -0.11446500       0.44202400
C        4.20900000       4.86013000      18.49926000       0.81690100       4.28200100      -1.75884700
C        7.01499000       0.00000000      18.49926000       2.55553000       1.37391700      -2.06368300
C       11.22399000       2.43007000      18.49926000      -2.07691000       1.61228800      -2.11590900
C       12.62699000       4.86013000      18.49926000      -2.75808300       2.60202600      -2.12525000
C        5.61200000       3.24009000      18.27026000       1.73449700      -0.97254500      -2.85323200
C       11.22399000       8.10022000      18.27026000      -1.11436400      -2.58619300      -3.28011400
C        1.40300000       0.81002000      18.27026000       0.38702300      -2.50475900      -3.07635200
C        2.80600000       3.24009000      18.27026000      -0.00136200      -2.59123000      -2.66302900
O        4.20900000       0.81002000      19.42826000       0.04675500      -0.07062700       2.53701400
O        7.01499000       0.00000000      19.65726000       1.05767600       1.34470200       0.91943900
O        5.61200000       3.24009000      19.42826000       1.63292600      -1.75067100       2.75392400
O        8.41799000       2.43007000      19.65726000       0.03353900       0.07832600       1.07369000
O        1.40300000       0.81002000      19.42826000       1.49008500      -1.87515200       2.84128900
O       11.22399000       8.10022000      19.42826000      -1.61375400      -1.91296600       2.92583100
O       12.62699000       4.86013000      19.65726000      -1.05314200       1.46699500       0.96225700
O       11.22399000       2.43007000      19.65726000      -1.12413900       1.32238200       0.81301200
O        4.20900000       4.86013000      19.65726000      -0.03313000       2.72308500       0.74072400
O        7.01499000       7.29020000      19.88626000      -0.00226500      -0.00365400      -0.23779000
O        2.80600000       3.24009000      19.42826000      -0.02002300      -3.40141300       2.50974500
Pt      15.43299000       8.91024000      14.58218000      -0.03210300       0.21749200       0.05111100
Pt       7.01499000       8.91024000      14.58218000       0.12985900      -0.17581000      -0.37272300
Pt       9.82099000       8.91024000      14.58218000      -0.05755600       0.14980200      -0.34227500
Pt      12.62699000       8.91024000      14.58218000      -0.06813500       0.00196600      -0.70660700
Pt       0.00000000       0.00000000      16.87326000      -0.23356700      -0.43579900       0.39553400
Pt       2.80600000       0.00000000      16.87326000      -0.05118800      -0.06868800       0.71330800
Pt       5.61200000       0.00000000      16.87326000       0.41992700       0.01577400       1.11546100
Pt       8.41799000       0.00000000      16.87326000      -0.35795500      -0.66140000       1.08572800
Pt       1.40300000       2.43007000      16.87326000      -0.48372700      -0.09250800       0.93127600
Pt       2.80600000       4.86013000      16.87326000      -0.00343800       0.92741400       1.77258400
Pt       7.01499000       2.43007000      16.87326000       0.68084900       0.39187100       1.34522800
Pt       9.82099000       2.43007000      16.87326000      -0.02388500      -0.17070700       2.44930400
Pt       5.61200000       4.86013000      16.87326000      -0.22003900       0.25738800       1.24261000
Pt       8.41799000       4.86013000      16.87326000       0.30959700       0.47545800      -0.39899300
Pt      11.22399000       4.86013000      16.87326000       0.35961700       0.30423200       1.16875100
Pt       4.20900000       7.29020000      16.87326000      -0.11627200       0.61827500      -0.31717000
Pt       7.01499000       7.29020000      16.87326000       0.09507800      -0.20567400       0.71567900
Pt       9.82099000       7.29020000      16.87326000       0.19659100      -0.35760700       0.50309300
Pt      11.22399000       6.48017000      14.58218000      -0.11689300      -0.06724300      -0.55888700
Pt       4.20900000       2.43007000      16.87326000       0.02726100      -0.44423000       0.34140400
Pt      12.62699000       7.29020000      16.87326000      -0.03525900       0.04825100       0.32895600
Pt       0.00000000       0.00000000      10.00000000       0.01703700       0.00755600      -0.19495900
Pt      14.02999000       6.48017000      14.58218000      -0.18654700      -0.14287600      -0.18099500
Pt       4.20900000       0.81002000      12.29109000       0.01957300      -0.08624400       0.15396800
Pt       1.40300000       0.81002000      12.29109000      -0.03881300      -0.04399300       0.07650500
Pt      12.62699000       7.29020000      10.00000000       0.02287200      -0.00684100      -0.22241400
Pt       9.82099000       7.29020000      10.00000000      -0.00851300       0.05049600      -0.10179600
Pt       7.01499000       7.29020000      10.00000000       0.00335300      -0.01484400      -0.21597000
Pt       4.20900000       7.29020000      10.00000000      -0.04021100       0.00354100      -0.16616400
Pt      11.22399000       4.86013000      10.00000000       0.05849000      -0.02085800      -0.10436600
Pt       8.41799000       4.86013000      10.00000000      -0.02164100       0.02309700      -0.04371500
Pt       5.61200000       4.86013000      10.00000000      -0.00270400      -0.01194500      -0.17796500
Pt       2.80600000       4.86013000      10.00000000      -0.02997000       0.01560200      -0.15078400
Pt       9.82099000       2.43007000      10.00000000       0.02562900      -0.04345800      -0.17528500
Pt       7.01499000       2.43007000      10.00000000      -0.01843200      -0.03967900      -0.11650800
Pt       4.20900000       2.43007000      10.00000000       0.01468200       0.00951500      -0.07745200
Pt       1.40300000       2.43007000      10.00000000      -0.03361200       0.02666700      -0.11821000
Pt       8.41799000       0.00000000      10.00000000      -0.00191600      -0.00620000      -0.24028100
Pt       5.61200000       0.00000000      10.00000000      -0.00792200      -0.01742600      -0.18599300
Pt       2.80600000       0.00000000      10.00000000      -0.00907500      -0.04063400      -0.14170400
Pt       7.01499000       0.81002000      12.29109000       0.04540900      -0.09542500       0.09968600
Pt       9.82099000       0.81002000      12.29109000      -0.03939800      -0.14264100       0.09789400
Pt       2.80600000       3.24009000      12.29109000       0.00365800       0.02470800       0.12760900
Pt       5.61200000       3.24009000      12.29109000       0.06162900       0.08693000       0.18399900
Pt       9.82099000       4.05011000      14.58218000       0.10327400       0.11845400      -0.13826100
Pt       7.01499000       4.05011000      14.58218000      -0.10115600       0.17116900      -0.34770100
Pt       4.20900000       4.05011000      14.58218000      -0.14656900       0.01618100      -0.78673700
Pt      12.62699000       4.05011000      14.58218000       0.12100600      -0.07831700      -0.46998500
Pt       8.41799000       1.62004000      14.58218000       0.08616100       0.14647500      -0.33894000
Pt       5.61200000       1.62004000      14.58218000       0.01811200      -0.01952600      -0.32296200
Pt       2.80600000       1.62004000      14.58218000      -0.05377300       0.20808000      -0.67255000
Pt      11.22399000       1.62004000      14.58218000      -0.05278300       0.19163400      -0.49082800
Pt       5.61200000       6.48017000      14.58218000       0.25114400      -0.10300000      -0.17259000
Pt      14.02999000       8.10022000      12.29109000       0.04110600      -0.02060800       0.01381300
Pt       8.41799000       8.10022000      12.29109000      -0.06044800      -0.08677900       0.21368200
Pt       5.61200000       8.10022000      12.29109000      -0.04720500      -0.00308600       0.00814000
Pt      12.62699000       5.67015000      12.29109000       0.05774000       0.10029600       0.18579000
Pt       9.82099000       5.67015000      12.29109000       0.02213000      -0.00361400       0.08343000
Pt       7.01499000       5.67015000      12.29109000      -0.10364600       0.03085400       0.09144400
Pt       4.20900000       5.67015000      12.29109000       0.03949600       0.03644600       0.00304200
Pt      11.22399000       3.24009000      12.29109000      -0.09383400      -0.02799300       0.22357800
Pt       8.41799000       3.24009000      12.29109000       0.02155000      -0.02412000       0.09369600
Pt      11.22399000       8.10022000      12.29109000       0.08051400      -0.01092100       0.04507600
Pt       8.41799000       6.48017000      14.58218000      -0.00996000       0.15177400      -0.07203100
86
Lattice="11.223990791 0.0 0.0 5.611995395 9.720261156 0.0 0.0 0.0 29.886262579" Properties=species:S:1:pos:R:3:forces:R:3 energy=-542.71875947 pbc="T T T"
C        1.40300000       2.43007000      18.72826000      -0.20929600      -0.76199000       0.33928300
C        8.41799000       3.24009000      18.27026000      -1.38073200      -1.98046800      -3.48799500
C       12.62699000       4.86013000      18.49926000      -0.02032800       1.12864900      -2.81740500
C       14.02999000       8.10022000      18.27026000       0.55194100       0.22853200      -3.48290300
C        4.20900000       0.00000000      18.49926000      -2.04705800       0.95820100      -2.63976200
C        4.20900000       4.86013000      18.49926000       0.94684300       1.22808000      -3.04894000
C        0.00000000       0.00000000      18.72826000      -0.38111700       0.05117400       0.20840700
C        9.82099000       4.86013000      18.49926000       1.22713400       2.12217000      -2.53010900
C       11.22399000       8.10022000      18.27026000       0.66044900      -1.68558300      -3.28465200
C        4.20900000       2.43007000      18.72826000       0.47917400      -0.01389400       0.75857800
C        7.01499000       7.29020000      18.72826000       0.17265600      -0.35138900       0.17154300
O        8.41799000       3.24009000      19.42826000      -1.64612300      -1.85401600       3.14205800
O        4.20900000       0.00000000      19.65726000      -1.16631100       0.59197300       1.21932700
O        9.82099000       4.86013000      19.65726000       1.10909700       1.38496500       1.07868800
O        1.40300000       2.43007000      19.88626000      -0.07423800      -0.59157100      -0.08863100
O        4.20900000       2.43007000      19.88626000       0.13358400       0.00687800      -0.31021300
O       11.22399000       8.10022000      19.42826000       1.54859200      -1.89216200       2.96246400
O        0.00000000       0.00000000      19.88626000      -0.12700700       0.00372800      -0.11155700
O        4.20900000       4.86013000      19.65726000       0.01564600       0.78918800       1.40219700
O       14.02999000       8.10022000      19.42826000       0.11603500      -0.03317200       3.17597100
O       12.62699000       4.86013000      19.65726000       0.00085700       0.77359100       1.14478300