36
Lattice="8.418 0.0 0.0 -4.209 7.290201849 0.0 0.0 0.0 22.84342" Properties=species:S:1:pos:R:3:forces:R:3 energy=-208.32226142 pbc="T T T"
Pt       4.20900000       7.29020000       8.00000000       0.00004700      -0.00002000      -0.07618800
Pt       1.40300000       7.29019000       8.00002000       0.00009500       0.00003200      -0.07630800
Pt      -1.40299000       2.43007000       8.00002000       0.00000800      -0.00009800      -0.07632800
Pt       1.40302000       2.43009000       8.00004000      -0.00013000      -0.00023700      -0.07654500
Pt       4.20901000       2.43006000       8.00003000       0.00009300      -0.00004800      -0.07640900
Pt       5.61199000       4.86012000       8.00002000       0.00007100       0.00012500      -0.07643600
Pt      -0.00000000       4.86013000       8.00004000      -0.00008500       0.00005200      -0.07664800
Pt       2.80601000       0.00001000       8.00002000      -0.00009000      -0.00010900      -0.07643300
Pt       2.80599000       4.86011000       8.00004000       0.00012600       0.00021500      -0.07654900
Pt       4.20899000       0.81001000      10.29247000       0.00024600       0.00011600       0.00604700
Pt       7.01501000       0.81002000      10.29247000      -0.00000300      -0.00005100       0.00605400
Pt       0.00002000       3.24012000      10.29247000      -0.00020400      -0.00039500       0.00614000
Pt       2.80599000       3.24010000      10.29246000       0.00021800      -0.00014600       0.00616500
Pt       5.61201000       3.24011000      10.29247000      -0.00000200      -0.00027700       0.00602300
Pt      -1.40298000       5.67015000      10.29247000      -0.00025100       0.00013200       0.00611200
Pt       1.40303000       0.81003000      10.29247000      -0.00030200      -0.00010500       0.00608700
Pt       1.40298000       5.67012000      10.29247000       0.00026200       0.00042500       0.00611200
Pt       4.20901000       5.67013000      10.29247000      -0.00006600       0.00034200       0.00610300
Pt      -0.00001000       1.62007000      12.55095000       0.00005100      -0.00028600      -0.00608700
Pt       5.61198000       1.62006000      12.55095000       0.00026400      -0.00018900      -0.00612700
Pt      -1.40301000       4.05010000      12.55095000       0.00001200       0.00022400      -0.00602900
Pt       1.40301000       4.05011000      12.55096000      -0.00021800       0.00006700      -0.00616300
Pt       4.20898000       4.05008000      12.55095000       0.00019400       0.00041700      -0.00611700
Pt      -2.80601000       6.48019000      12.55095000      -0.00002600      -0.00000100      -0.00603600
Pt       0.00001000       6.48019000      12.55095000      -0.00020900      -0.00005300      -0.00603500
Pt       2.80602000       1.62008000      12.55095000      -0.00026100      -0.00037100      -0.00611400
Pt       2.80597000       6.48017000      12.55095000       0.00029400       0.00016000      -0.00609700
Pt       2.80600000       0.00001000      14.84340000      -0.00009400      -0.00001800       0.07632000
Pt       1.40299000       7.29019000      14.84340000       0.00009700       0.00011500       0.07640800
Pt      -1.40299000       2.43008000      14.84340000      -0.00006700      -0.00013200       0.07642200
Pt       1.40301000       2.43010000      14.84338000      -0.00012800      -0.00025600       0.07652500
Pt       4.20900000       2.43007000      14.84338000       0.00008200      -0.00006000       0.07664600
Pt       5.61199000       4.86013000      14.84340000      -0.00002000       0.00010000       0.07632300
Pt       0.00000000       0.00000000      14.84342000      -0.00005600       0.00003000       0.07618600
Pt      -0.00001000       4.86014000      14.84339000      -0.00009000       0.00005200       0.07642600
Pt       2.80598000       4.86011000      14.84338000       0.00014000       0.00024400       0.07654800
36
Lattice="8.418 0.0 0.0 -4.209 7.290201849 0.0 0.0 0.0 22.83544" Properties=species:S:1:pos:R:3:forces:R:3 energy=-208.30649559 pbc="T T T"
Pt       4.20900000       7.29020000       8.00000000      -0.00000800       0.00000600      -0.15845300
Pt       1.40299000       7.29018000       8.00002000       0.00023400       0.00016100      -0.15859000
Pt      -1.40299000       2.43009000       8.00002000       0.00000500      -0.00029500      -0.15859200
Pt       1.40303000       2.43010000       8.00006000      -0.00023200      -0.00036700      -0.15907500
Pt       4.20900000       2.43007000       8.00004000       0.00020200      -0.00013000      -0.15874100
Pt       5.61199000       4.86011000       8.00004000       0.00007200       0.00023900      -0.15899100
Pt       0.00001000       4.86013000       8.00008000      -0.00018000       0.00009500      -0.15946700
Pt       2.80602000       0.00002000       8.00004000      -0.00017100      -0.00018100      -0.15896900
Pt       2.80598000       4.86009000       8.00006000       0.00021900       0.00038500      -0.15909800
Pt       4.20897000       0.81000000      10.28355000       0.00051700       0.00026900       0.12975600
Pt       7.01501000       0.81002000      10.28356000       0.00002800      -0.00003300       0.12970400
Pt       0.00004000       3.24016000      10.28354000      -0.00046800      -0.00094200       0.12997600
Pt       2.80597000       3.24011000      10.28355000       0.00048300      -0.00031000       0.12981100
Pt       5.61201000       3.24013000      10.28355000      -0.00000100      -0.00059900       0.12976600
Pt      -1.40296000       5.67013000      10.28354000      -0.00052900       0.00034300       0.13010400
Pt       1.40305000       0.81004000      10.28354000      -0.00060500      -0.00024800       0.13000200
Pt       1.40296000       5.67009000      10.28354000       0.00056800       0.00089700       0.12998000
Pt       4.20901000       5.67010000      10.28354000      -0.00009300       0.00067900       0.13001600
Pt      -0.00001000       1.62010000      12.55190000       0.00009500      -0.00064700      -0.13002200
Pt       5.61196000       1.62007000      12.55190000       0.00054200      -0.00033500      -0.13010100
Pt      -1.40301000       4.05007000      12.55189000       0.00000300       0.00063400      -0.12976700
Pt       1.40303000       4.05010000      12.55189000      -0.00050800       0.00025100      -0.12981500
Pt       4.20896000       4.05004000      12.55190000       0.00049000       0.00096000      -0.12998700
Pt      -2.80601000       6.48019000      12.55188000      -0.00002600      -0.00004100      -0.12974100
Pt       0.00003000       6.48021000      12.55189000      -0.00052800      -0.00031100      -0.12979600
Pt       2.80604000       1.62011000      12.55190000      -0.00058200      -0.00083900      -0.13001100
Pt       2.80595000       6.48016000      12.55190000       0.00061400       0.00027400      -0.13002600
Pt       2.80601000       0.00002000      14.83542000      -0.00022800      -0.00015100       0.15863000
Pt       1.40298000       7.29018000      14.83540000       0.00018500       0.00018700       0.15899400
Pt      -1.40299000       2.43009000      14.83540000      -0.00006900      -0.00021900       0.15899400
Pt       1.40302000       2.43011000      14.83538000      -0.00023600      -0.00036100       0.15909600
Pt       4.20899000       2.43007000      14.83536000       0.00019500      -0.00008900       0.15948400
Pt       5.61199000       4.86012000      14.83542000       0.00000300       0.00025200       0.15859300
Pt       0.00000000       0.00000000      14.83544000      -0.00001200       0.00000500       0.15848000
Pt      -0.00000000       4.86014000      14.83540000      -0.00020600       0.00008700       0.15874900
Pt       2.80597000       4.86010000      14.83538000       0.00022800       0.00037000       0.15910600
36
Lattice="8.418 0.0 0.0 -4.209 7.290201849 0.0 0.0 0.0 22.83954" Properties=species:S:1:pos:R:3:forces:R:3 energy=-208.31664522 pbc="T T T"
Pt       4.20900000       7.29020000       8.00000000       0.00003600       0.00000700      -0.13077300
Pt       1.40300000       7.29018000       8.00001000       0.00013300       0.00011400      -0.13084900
Pt      -1.40299000       2.43008000       8.00001000       0.00001600      -0.00019900      -0.13084700
Pt       1.40303000       2.43010000       8.00004000      -0.00019800      -0.00029700      -0.13120800
Pt       4.20901000       2.43006000       8.00003000       0.00014400      -0.00008200      -0.13095700
Pt       5.61199000       4.86011000       8.00003000       0.00006700       0.00018200      -0.13113100
Pt      -0.00000000       4.86013000       8.00006000      -0.00009900       0.00006600      -0.13148000
Pt       2.80601000       0.00002000       8.00003000      -0.00010200      -0.00016200      -0.13111900
Pt       2.80599000       4.86010000       8.00004000       0.00015600       0.00026600      -0.13119600
Pt       4.20898000       0.81000000      10.28814000       0.00038700       0.00022600       0.06929100
Pt       7.01501000       0.81002000      10.28814000       0.00000800      -0.00001100       0.06931200
Pt       0.00003000       3.24014000      10.28813000      -0.00032100      -0.00065900       0.06946200
Pt       2.80598000       3.24010000      10.28813000       0.00036600      -0.00016100       0.06939000
Pt       5.61201000       3.24012000      10.28814000      -0.00001500      -0.00045600       0.06930600
Pt      -1.40297000       5.67014000      10.28813000      -0.00041500       0.00025300       0.06955600
Pt       1.40304000       0.81004000      10.28813000      -0.00045300      -0.00018800       0.06950700
Pt       1.40297000       5.67011000      10.28813000       0.00044700       0.00058400       0.06947600
Pt       4.20901000       5.67012000      10.28813000      -0.00008600       0.00045600       0.06952800
Pt      -0.00001000       1.62009000      12.55141000       0.00008000      -0.00048900      -0.06950300
Pt       5.61197000       1.62006000      12.55141000       0.00040300      -0.00020800      -0.06957200
Pt      -1.40301000       4.05009000      12.55140000      -0.00000600       0.00042100      -0.06929700
Pt       1.40302000       4.05010000      12.55141000      -0.00034600       0.00023300      -0.06939300
Pt       4.20897000       4.05006000      12.55141000       0.00032200       0.00072900      -0.06945800
Pt      -2.80601000       6.48019000      12.55140000      -0.00001200      -0.00000700      -0.06930700
Pt       0.00002000       6.48020000      12.55140000      -0.00038900      -0.00019500      -0.06926500
Pt       2.80603000       1.62010000      12.55141000      -0.00042800      -0.00065600      -0.06945400
Pt       2.80596000       6.48017000      12.55141000       0.00045900       0.00014100      -0.06950400
Pt       2.80600000       0.00002000      14.83953000      -0.00013300      -0.00010900       0.13082600
Pt       1.40299000       7.29019000      14.83951000       0.00009200       0.00011500       0.13112100
Pt      -1.40299000       2.43009000      14.83951000      -0.00006600      -0.00017400       0.13112400
Pt       1.40301000       2.43010000      14.83950000      -0.00014400      -0.00026500       0.13120300
Pt       4.20900000       2.43007000      14.83948000       0.00008500      -0.00005500       0.13148800
Pt       5.61199000       4.86012000      14.83953000      -0.00002700       0.00021200       0.13083500
Pt       0.00000000       0.00000000      14.83954000      -0.00002700       0.00000100       0.13075600
Pt      -0.00001000       4.86014000      14.83951000      -0.00012700       0.00009800       0.13095600
Pt       2.80597000       4.86011000      14.83950000       0.00019300       0.00026900       0.13117700
36
Lattice="8.417993093 0.0 0.0 4.208996546 7.290195867 0.0 0.0 0.0 26.873262579" Properties=species:S:1:pos:R:3:forces:R:3 energy=-208.51111434 pbc="T T T"
Pt       0.00000000       0.00000000      10.00000000       0.00000000      -0.00000000      -0.01906500
Pt       5.61200000       1.62004000      14.58218000      -0.00000000      -0.00000000      -0.19363900
Pt       9.82099000       4.05011000      14.58218000      -0.00000000       0.00000000      -0.19363900
Pt       4.20900000       4.05011000      14.58218000      -0.00000000      -0.00000000      -0.19363900
Pt       7.01499000       4.05011000      14.58218000       0.00000000      -0.00000000      -0.19363900
Pt      11.22399000       6.48017000      14.58218000      -0.00000000      -0.00000000      -0.19363900
Pt       5.61200000       6.48017000      14.58218000       0.00000000      -0.00000000      -0.19363900
Pt       2.80600000       1.62004000      14.58218000      -0.00000000       0.00000000      -0.19363900
Pt       8.41799000       6.48017000      14.58218000      -0.00000000       0.00000000      -0.19363900
Pt       2.80600000       0.00000000      16.87326000       0.00000000      -0.00000000       0.01906500
Pt       5.61200000       0.00000000      16.87326000       0.00000000      -0.00000000       0.01906500
Pt       1.40300000       2.43007000      16.87326000       0.00000000       0.00000000       0.01906500
Pt       4.20900000       2.43007000      16.87326000       0.00000000       0.00000000       0.01906500
Pt       7.01499000       2.43007000      16.87326000       0.00000000      -0.00000000       0.01906500
Pt       2.80600000       4.86013000      16.87326000       0.00000000       0.00000000       0.01906500
Pt       0.00000000       0.00000000      16.87326000       0.00000000      -0.00000000       0.01906500
Pt       8.41799000       1.62004000      14.58218000       0.00000000      -0.00000000      -0.19363900
Pt       9.82099000       5.67015000      12.29109000      -0.00000000       0.00000000       0.19363900
Pt       7.01499000       5.67015000      12.29109000      -0.00000000       0.00000000       0.19363900
Pt       2.80600000       0.00000000      10.00000000      -0.00000000       0.00000000      -0.01906500
Pt       5.61200000       0.00000000      10.00000000      -0.00000000       0.00000000      -0.01906500
Pt       1.40300000       2.43007000      10.00000000      -0.00000000      -0.00000000      -0.01906500
Pt       4.20900000       2.43007000      10.00000000      -0.00000000       0.00000000      -0.01906500
Pt       7.01499000       2.43007000      10.00000000       0.00000000      -0.00000000      -0.01906500
Pt       2.80600000       4.86013000      10.00000000      -0.00000000       0.00000000      -0.01906500
Pt       5.61200000       4.86013000      10.00000000      -0.00000000       0.00000000      -0.01906500
Pt       8.41799000       4.86013000      10.00000000       0.00000000       0.00000000      -0.01906500
Pt       1.40300000       0.81002000      12.29109000      -0.00000000       0.00000000       0.19363900
Pt       4.20900000       0.81002000      12.29109000       0.00000000       0.00000000       0.19363900
Pt       7.01499000       0.81002000      12.29109000      -0.00000000       0.00000000       0.19363900
Pt       2.80600000       3.24009000      12.29109000      -0.00000000       0.00000000       0.19363900
Pt       5.61200000       3.24009000      12.29109000      -0.00000000      -0.00000000       0.19363900
Pt       8.41799000       3.24009000      12.29109000       0.00000000       0.00000000       0.19363900
Pt       4.20900000       5.67015000      12.29109000      -0.00000000      -0.00000000       0.19363900
Pt       5.61200000       4.86013000      16.87326000       0.00000000      -0.00000000       0.01906500
Pt       8.41799000       4.86013000      16.87326000      -0.00000000      -0.00000000       0.01906500
