50
Lattice="8.417993093 0.0 0.0 5.611995395 9.720261156 0.0 0.0 0.0 29.886262579" Properties=species:S:1:pos:R:3:forces:R:3 energy=-294.29392001 pbc="T T T"
C        4.20900000       2.43007000      18.72826000       0.00365000      -0.00911400       0.10535300
O        4.20900000       2.43007000      19.88626000      -0.00092700       0.00253400      -0.05532000
Pt       7.01499000       7.29020000      16.87326000       0.01360800      -0.00322900       0.07431100
Pt       5.61200000       1.62004000      14.58218000      -0.09028500       0.04704600      -0.14499900
Pt       9.82099000       4.05011000      14.58218000      -0.02983100       0.01507200      -0.18503800
Pt       4.20900000       4.05011000      14.58218000      -0.00311500      -0.14399900      -0.14236000
Pt       7.01499000       4.05011000      14.58218000       0.02861300       0.01497000      -0.18751500
Pt      11.22399000       6.48017000      14.58218000       0.01085000      -0.01761300      -0.22646700
Pt       5.61200000       6.48017000      14.58218000      -0.00892400       0.00474900      -0.23139700
Pt       8.41799000       6.48017000      14.58218000       0.00364100       0.00370500      -0.20553100
Pt      12.62699000       8.91024000      14.58218000      -0.02443400       0.03205200      -0.24267200
Pt       7.01499000       8.91024000      14.58218000       0.01132200       0.02541800      -0.23662300
Pt       9.82099000       7.29020000      16.87326000      -0.00453000      -0.01389400       0.04518900
Pt       9.82099000       8.91024000      14.58218000       0.01520900      -0.03728200      -0.19596800
Pt       2.80600000       0.00000000      16.87326000      -0.22708200      -0.39414000      -0.05870100
Pt       5.61200000       0.00000000      16.87326000       0.21975200      -0.35025200      -0.04433000
Pt       1.40300000       2.43007000      16.87326000      -0.43853600      -0.00253700      -0.04552000
Pt       4.20900000       2.43007000      16.87326000       0.00046300       0.02140200       1.00935300
Pt       7.01499000       2.43007000      16.87326000       0.42999400      -0.01320500      -0.04362200
Pt       2.80600000       4.86013000      16.87326000      -0.19683600       0.36155100      -0.05493200
Pt       5.61200000       4.86013000      16.87326000       0.20179400       0.40071400      -0.06970800
Pt       8.41799000       4.86013000      16.87326000      -0.00597900       0.00440900       0.03429500
Pt       4.20900000       7.29020000      16.87326000      -0.01188600       0.01377200       0.07476300
Pt       2.80600000       1.62004000      14.58218000       0.09946000       0.05758000      -0.14107300
Pt       0.00000000       0.00000000      16.87326000       0.00658300      -0.00016000       0.06024800
Pt       0.00000000       0.00000000      10.00000000       0.00661800      -0.07308700      -0.19321000
Pt       8.41799000       8.10022000      12.29109000      -0.00575300       0.00509000       0.20123700
Pt       2.80600000       0.00000000      10.00000000      -0.00284600      -0.00023400      -0.05509600
Pt       5.61200000       0.00000000      10.00000000      -0.00449500      -0.00447700      -0.06484900
Pt       1.40300000       2.43007000      10.00000000      -0.00687900      -0.00600800      -0.04017300
Pt       4.20900000       2.43007000      10.00000000      -0.00131900       0.00132900      -0.07268000
Pt       7.01499000       2.43007000      10.00000000       0.00623800      -0.01620300      -0.05076000
Pt       2.80600000       4.86013000      10.00000000       0.00560300       0.00258500      -0.04803500
Pt       5.61200000       4.86013000      10.00000000       0.00216300       0.00940000      -0.05550600
Pt       8.41799000       4.86013000      10.00000000      -0.00761900       0.00078700      -0.04900700
Pt       4.20900000       7.29020000      10.00000000       0.00940000       0.06717600      -0.12985400
Pt       7.01499000       7.29020000      10.00000000      -0.02186200       0.00521900      -0.04227500
Pt       9.82099000       7.29020000      10.00000000       0.01114700       0.01212000      -0.07847100
Pt       1.40300000       0.81002000      12.29109000      -0.09579600      -0.05181000       0.09502800
Pt       4.20900000       0.81002000      12.29109000      -0.00215200       0.01200800       0.23804300
Pt       7.01499000       0.81002000      12.29109000       0.09853200      -0.04408200       0.10020600
Pt       2.80600000       3.24009000      12.29109000      -0.00258100       0.00465000       0.24280600
Pt       5.61200000       3.24009000      12.29109000      -0.01533100       0.00002400       0.24047700
Pt       8.41799000       3.24009000      12.29109000       0.01671400       0.00892900       0.19889500
Pt       4.20900000       5.67015000      12.29109000       0.00589700       0.07604400       0.10074500
Pt       7.01499000       5.67015000      12.29109000      -0.00503200      -0.00919800       0.19404100
Pt       9.82099000       5.67015000      12.29109000       0.00154900      -0.01090000       0.20612400
Pt       5.61200000       8.10022000      12.29109000      -0.00644900       0.01358500       0.20656900
Pt      11.22399000       8.10022000      12.29109000       0.01828500      -0.02830300       0.19707300
Pt       8.41799000       1.62004000      14.58218000      -0.00660400       0.00580700      -0.23306500
50
Lattice="8.417993093 0.0 0.0 5.611995395 9.720261156 0.0 0.0 0.0 29.428262579" Properties=species:S:1:pos:R:3:forces:R:3 energy=-294.42275368 pbc="T T T"
C        9.82099000       5.67015000      18.27026000       0.00091600       0.01052800      -3.39005400
O        9.82099000       5.67015000      19.42826000      -0.00039500      -0.00386600       3.11568500
Pt       7.01499000       7.29020000      16.87326000      -0.32467400       0.18984900      -0.02425100
Pt       5.61200000       1.62004000      14.58218000      -0.00787100       0.02384900      -0.30263300
Pt       9.82099000       4.05011000      14.58218000       0.00042000      -0.09366900      -0.44838300
Pt       4.20900000       4.05011000      14.58218000      -0.06290900       0.04818600      -0.16117100
Pt       7.01499000       4.05011000      14.58218000       0.06380300       0.04508500      -0.16565100
Pt      11.22399000       6.48017000      14.58218000       0.08850600       0.03566000      -0.44895600
Pt       5.61200000       6.48017000      14.58218000      -0.00194800       0.02003600      -0.22427600
Pt       8.41799000       6.48017000      14.58218000      -0.08580300       0.03785800      -0.44326000
Pt      12.62699000       8.91024000      14.58218000       0.01091200       0.00623800      -0.22001900
Pt       7.01499000       8.91024000      14.58218000      -0.00704600      -0.00548100      -0.21497400
Pt       9.82099000       7.29020000      16.87326000       0.00018100       0.35334200       0.65852800
Pt       9.82099000       8.91024000      14.58218000      -0.00373900      -0.09175500      -0.13736100
Pt       2.80600000       0.00000000      16.87326000       0.01823800      -0.00780700       0.04353500
Pt       5.61200000       0.00000000      16.87326000      -0.00715200       0.02037800       0.05999100
Pt       1.40300000       2.43007000      16.87326000       0.00300200      -0.37510100      -0.03410700
Pt       4.20900000       2.43007000      16.87326000       0.00850200       0.00719100       0.03831500
Pt       7.01499000       2.43007000      16.87326000      -0.01112200      -0.00152100       0.04263400
Pt       2.80600000       4.86013000      16.87326000       0.29834500      -0.18155100       0.66197900
Pt       5.61200000       4.86013000      16.87326000       0.00965900      -0.02193300       0.00184900
Pt       8.41799000       4.86013000      16.87326000      -0.30943400      -0.18847700       0.67059400
Pt       4.20900000       7.29020000      16.87326000       0.32081800       0.19072100      -0.03612600
Pt       2.80600000       1.62004000      14.58218000      -0.00894200      -0.02044500      -0.25125000
Pt       0.00000000       0.00000000      16.87326000      -0.01203900       0.00057000       0.06448800
Pt       0.00000000       0.00000000      10.00000000      -0.00327800      -0.00616600      -0.05964200
Pt       8.41799000       8.10022000      12.29109000       0.01291000       0.04064500       0.20250200
Pt       2.80600000       0.00000000      10.00000000       0.00553500       0.01877800      -0.06601600
Pt       5.61200000       0.00000000      10.00000000      -0.00556300       0.00838500      -0.05005300
Pt       1.40300000       2.43007000      10.00000000       0.00886900       0.00113900      -0.08112100
Pt       4.20900000       2.43007000      10.00000000      -0.02878400       0.01756600      -0.15841800
Pt       7.01499000       2.43007000      10.00000000       0.02205100      -0.02324000      -0.09832200
Pt       2.80600000       4.86013000      10.00000000      -0.00263000      -0.00417800      -0.06784500
Pt       5.61200000       4.86013000      10.00000000      -0.00635400      -0.00981300      -0.03546500
Pt       8.41799000       4.86013000      10.00000000       0.00995500       0.00719900      -0.05403200
Pt       4.20900000       7.29020000      10.00000000       0.00938800       0.00373000      -0.07476100
Pt       7.01499000       7.29020000      10.00000000      -0.00987400       0.00372100      -0.06125000
Pt       9.82099000       7.29020000      10.00000000      -0.00066100      -0.00643900      -0.05858800
Pt       1.40300000       0.81002000      12.29109000       0.00298400       0.00503700       0.20919200
Pt       4.20900000       0.81002000      12.29109000       0.00658200       0.10948100       0.12519100
Pt       7.01499000       0.81002000      12.29109000      -0.00996100       0.03211900       0.21544800
Pt       2.80600000       3.24009000      12.29109000       0.05193600      -0.02669700       0.20124100
Pt       5.61200000       3.24009000      12.29109000      -0.00849800      -0.10761200       0.04505300
Pt       8.41799000       3.24009000      12.29109000      -0.04851100      -0.00571700       0.19754800
Pt       4.20900000       5.67015000      12.29109000       0.01873100      -0.03029800       0.18278400
Pt       7.01499000       5.67015000      12.29109000      -0.01805500      -0.02653900       0.18995300
Pt       9.82099000       5.67015000      12.29109000       0.00156700      -0.00853200       0.25282800
Pt       5.61200000       8.10022000      12.29109000       0.00558100       0.00577000       0.22490200
Pt      11.22399000       8.10022000      12.29109000      -0.01501200       0.02348200       0.19314700
Pt       8.41799000       1.62004000      14.58218000       0.02086700      -0.01970900      -0.22939800
50
Lattice="8.417993093 0.0 0.0 5.611995395 9.720261156 0.0 0.0 0.0 29.657262579" Properties=species:S:1:pos:R:3:forces:R:3 energy=-294.23650689 pbc="T T T"
C        5.61200000       2.43007000      18.49926000      -0.00668000       0.05137200      -3.14327900
O        5.61200000       2.43007000      19.65726000       0.00203000      -0.01601400       1.53783600
Pt       7.01499000       7.29020000      16.87326000       0.01369800      -0.02591400       0.13058300
Pt       5.61200000       1.62004000      14.58218000      -0.00041600      -0.10099600      -0.55638200
Pt       9.82099000       4.05011000      14.58218000       0.00155600       0.01534000      -0.24242400
Pt       4.20900000       4.05011000      14.58218000      -0.03672200       0.01262100      -0.30264900
Pt       7.01499000       4.05011000      14.58218000       0.03231800       0.01530200      -0.30213000
Pt      11.22399000       6.48017000      14.58218000       0.00450600      -0.00467000      -0.23704500
Pt       5.61200000       6.48017000      14.58218000      -0.00366000      -0.03045000      -0.24517700
Pt       8.41799000       6.48017000      14.58218000       0.00102800       0.00909100      -0.25573300
Pt      12.62699000       8.91024000      14.58218000      -0.01758500       0.01358900      -0.24632300
Pt       7.01499000       8.91024000      14.58218000      -0.00781300       0.01386500      -0.30195900
Pt       9.82099000       7.29020000      16.87326000      -0.00563500       0.01647400       0.07653900
Pt       9.82099000       8.91024000      14.58218000       0.02466400      -0.01406100      -0.23718800
Pt       2.80600000       0.00000000      16.87326000      -0.12253800      -0.08400100       0.01297900
Pt       5.61200000       0.00000000      16.87326000       0.00062500      -0.53647500       0.00731100
Pt       1.40300000       2.43007000      16.87326000      -0.00055800      -0.02512000       0.01293900
Pt       4.20900000       2.43007000      16.87326000       0.22986400      -0.09203400       1.40491500
Pt       7.01499000       2.43007000      16.87326000      -0.23299000      -0.08875900       1.40138100
Pt       2.80600000       4.86013000      16.87326000      -0.11002600       0.11858500       0.03184900
Pt       5.61200000       4.86013000      16.87326000       0.00553100       0.55835600      -0.01981300
Pt       8.41799000       4.86013000      16.87326000       0.10670100       0.12422700       0.01714900
Pt       4.20900000       7.29020000      16.87326000      -0.00715900      -0.01486700       0.09385900
Pt       2.80600000       1.62004000      14.58218000       0.10226100       0.09054400      -0.05627800
Pt       0.00000000       0.00000000      16.87326000       0.12365900      -0.07335800       0.00595800
Pt       0.00000000       0.00000000      10.00000000      -0.03206300      -0.03332700      -0.10649300
Pt       8.41799000       8.10022000      12.29109000      -0.02037500       0.02662400       0.19902200
Pt       2.80600000       0.00000000      10.00000000       0.03834100      -0.02857200      -0.09432100
Pt       5.61200000       0.00000000      10.00000000      -0.00476900      -0.00474200      -0.06994800
Pt       1.40300000       2.43007000      10.00000000      -0.00141500      -0.00493600      -0.00926800
Pt       4.20900000       2.43007000      10.00000000       0.00265600       0.00526000      -0.04111200
Pt       7.01499000       2.43007000      10.00000000      -0.00291300      -0.00942300      -0.04812500
Pt       2.80600000       4.86013000      10.00000000      -0.01335900       0.00781300      -0.05870400
Pt       5.61200000       4.86013000      10.00000000       0.00233200      -0.00161500      -0.03320100
Pt       8.41799000       4.86013000      10.00000000       0.00821500       0.00692600      -0.05654600
Pt       4.20900000       7.29020000      10.00000000       0.01324500       0.03830300      -0.06528900
Pt       7.01499000       7.29020000      10.00000000      -0.00898800       0.03070600      -0.06171600
Pt       9.82099000       7.29020000      10.00000000      -0.00545700       0.00365000      -0.04632000
Pt       1.40300000       0.81002000      12.29109000      -0.00499300      -0.08251200       0.03816500
Pt       4.20900000       0.81002000      12.29109000      -0.05044800      -0.02423700       0.18429700
Pt       7.01499000       0.81002000      12.29109000       0.05085800      -0.02156200       0.17946400
Pt       2.80600000       3.24009000      12.29109000       0.00602800      -0.00782700       0.22360800
Pt       5.61200000       3.24009000      12.29109000       0.00016600       0.01138500       0.23507700
Pt       8.41799000       3.24009000      12.29109000      -0.00045700      -0.00394600       0.22355300
Pt       4.20900000       5.67015000      12.29109000      -0.00989900       0.04238200       0.13716800
Pt       7.01499000       5.67015000      12.29109000       0.00866700       0.04136300       0.12951300
Pt       9.82099000       5.67015000      12.29109000       0.00117900       0.00126500       0.20451700
Pt       5.61200000       8.10022000      12.29109000       0.02120000       0.00031700       0.20187500
Pt      11.22399000       8.10022000      12.29109000       0.00274000      -0.00597300       0.19877100
Pt       8.41799000       1.62004000      14.58218000      -0.09715100       0.08003300      -0.05090600
50
Lattice="8.417993093 0.0 0.0 5.611995395 9.720261156 0.0 0.0 0.0 29.428262579" Properties=species:S:1:pos:R:3:forces:R:3 energy=-294.39693854 pbc="T T T"
C        8.41799000       1.62004000      18.27026000      -0.00490200       0.00507800      -3.38156700
O        8.41799000       1.62004000      19.42826000       0.00202600      -0.00277100       3.09819100
Pt       7.01499000       7.29020000      16.87326000       0.00675300      -0.02838700       0.06527800
Pt       5.61200000       1.62004000      14.58218000      -0.02150100       0.00952100      -0.23494300
Pt       9.82099000       4.05011000      14.58218000       0.00644700       0.00307900      -0.22334100
Pt       4.20900000       4.05011000      14.58218000       0.00163400      -0.00092100      -0.23778600
Pt       7.01499000       4.05011000      14.58218000      -0.00687700      -0.02030400      -0.22738400
Pt      11.22399000       6.48017000      14.58218000      -0.00443300       0.01585600      -0.25947200
Pt       5.61200000       6.48017000      14.58218000       0.01172600      -0.01450500      -0.23929700
Pt       8.41799000       6.48017000      14.58218000      -0.00772100       0.00675800      -0.26966600
Pt      12.62699000       8.91024000      14.58218000       0.00202900      -0.02923000      -0.23713000
Pt       7.01499000       8.91024000      14.58218000       0.00365800      -0.00542800      -0.24365600
Pt       9.82099000       7.29020000      16.87326000       0.01565500      -0.01810400       0.12283100
Pt       9.82099000       8.91024000      14.58218000      -0.00333800       0.02130600      -0.27827000
Pt       2.80600000       0.00000000      16.87326000       0.31217800      -0.17446000      -0.05962800
Pt       5.61200000       0.00000000      16.87326000      -0.30695600      -0.18012400      -0.04881200
Pt       1.40300000       2.43007000      16.87326000       0.20745900       0.13013600       0.66601400
Pt       4.20900000       2.43007000      16.87326000      -0.00422400      -0.01084200       0.02458700
Pt       7.01499000       2.43007000      16.87326000      -0.20413500       0.12681200       0.66629500
Pt       2.80600000       4.86013000      16.87326000       0.00692600       0.03390200       0.04546900
Pt       5.61200000       4.86013000      16.87326000      -0.01180500       0.03013800       0.04640100
Pt       8.41799000       4.86013000      16.87326000       0.00753300       0.35648100      -0.06856200
Pt       4.20900000       7.29020000      16.87326000      -0.02464400      -0.03027300       0.04986500
Pt       2.80600000       1.62004000      14.58218000       0.01781700       0.00216800      -0.23692200
Pt       0.00000000       0.00000000      16.87326000      -0.00457500      -0.24914100       0.65603800
Pt       0.00000000       0.00000000      10.00000000       0.00218500       0.00246500      -0.06881100
Pt       8.41799000       8.10022000      12.29109000       0.05131700      -0.04080000       0.16567500
Pt       2.80600000       0.00000000      10.00000000      -0.02209400      -0.02471600      -0.07818100
Pt       5.61200000       0.00000000      10.00000000       0.02050100      -0.01238800      -0.07169100
Pt       1.40300000       2.43007000      10.00000000       0.00171600      -0.00627700      -0.06875300
Pt       4.20900000       2.43007000      10.00000000      -0.00275200      -0.00152000      -0.05380700
Pt       7.01499000       2.43007000      10.00000000       0.00004700       0.00064300      -0.05236200
Pt       2.80600000       4.86013000      10.00000000       0.00110200       0.00036900      -0.05785100
Pt       5.61200000       4.86013000      10.00000000      -0.00251400       0.00619300      -0.07064200
Pt       8.41799000       4.86013000      10.00000000      -0.00109900       0.00371300      -0.05635100
Pt       4.20900000       7.29020000      10.00000000      -0.00772300       0.00416700      -0.07326100
Pt       7.01499000       7.29020000      10.00000000       0.01284700       0.03290500      -0.09732500
Pt       9.82099000       7.29020000      10.00000000      -0.00635200       0.00256100      -0.11924800
Pt       1.40300000       0.81002000      12.29109000       0.03202700      -0.02240000       0.20778000
Pt       4.20900000       0.81002000      12.29109000       0.00495300      -0.03138500       0.07989100
Pt       7.01499000       0.81002000      12.29109000      -0.03761800      -0.02887500       0.21478000
Pt       2.80600000       3.24009000      12.29109000      -0.00202900      -0.00400000       0.23516200
Pt       5.61200000       3.24009000      12.29109000       0.00556900       0.00015200       0.23535700
Pt       8.41799000       3.24009000      12.29109000       0.00082400       0.03674100       0.20864900
Pt       4.20900000       5.67015000      12.29109000      -0.00137100       0.01494200       0.20728500
Pt       7.01499000       5.67015000      12.29109000      -0.01157000       0.05168600       0.14424700
Pt       9.82099000       5.67015000      12.29109000       0.01149000       0.05997400       0.15618500
Pt       5.61200000       8.10022000      12.29109000       0.00412000      -0.00749400       0.23755800
Pt      11.22399000       8.10022000      12.29109000      -0.05394500      -0.01384900       0.16053800
Pt       8.41799000       1.62004000      14.58218000       0.00363700       0.00045000      -0.57935800
