16
Lattice="5.611995395 0.0 0.0 2.805997698 4.860130578 0.0 0.0 0.0 26.873262579" Properties=species:S:1:pos:R:3:forces:R:3 energy=-92.67092257 pbc="T T T"
Pt       0.00000000       0.00000000      10.00000000      -0.00000000      -0.00000000      -0.01916900
Pt       2.80600000       0.00000000      10.00000000      -0.00000000      -0.00000000      -0.01916900
Pt       1.40300000       2.43007000      10.00000000      -0.00000000      -0.00000000      -0.01916900
Pt       4.20900000       2.43007000      10.00000000      -0.00000000      -0.00000000      -0.01916900
Pt       1.40300000       0.81002000      12.29109000       0.00000000      -0.00000000       0.19377700
Pt       4.20900000       0.81002000      12.29109000       0.00000000       0.00000000       0.19377700
Pt       2.80600000       3.24009000      12.29109000       0.00000000      -0.00000000       0.19377700
Pt       5.61200000       3.24009000      12.29109000      -0.00000000       0.00000000       0.19377700
Pt       5.61200000       1.62004000      14.58218000      -0.00000000       0.00000000      -0.19377700
Pt       2.80600000       1.62004000      14.58218000      -0.00000000       0.00000000      -0.19377700
Pt       7.01499000       4.05011000      14.58218000       0.00000000       0.00000000      -0.19377700
Pt       4.20900000       4.05011000      14.58218000       0.00000000       0.00000000      -0.19377700
Pt       0.00000000       0.00000000      16.87326000       0.00000000      -0.00000000       0.01916900
Pt       2.80600000       0.00000000      16.87326000       0.00000000      -0.00000000       0.01916900
Pt       1.40300000       2.43007000      16.87326000       0.00000000      -0.00000000       0.01916900
Pt       4.20900000       2.43007000      16.87326000       0.00000000      -0.00000000       0.01916900
