4
Lattice="2.806 0.0 0.0 -1.403 2.430067283 0.0 0.0 0.0 22.83116" Properties=species:S:1:pos:R:3:forces:R:3 energy=-23.11441758 pbc="T T T"
Pt      -1.39918000       2.42786000       8.00000000      -0.00383800       0.00277100      -0.07505500
Pt       1.40133000       0.81098000      10.28378000       0.01347500      -0.00786300       0.05750400
Pt       0.00167000       1.61908000      12.54738000      -0.01347300       0.00785900      -0.05750200
Pt       2.80218000       0.00220000      14.83116000       0.00383500      -0.00276700       0.07505300
4
Lattice="2.806 0.0 0.0 -1.403 2.430067283 0.0 0.0 0.0 22.82758" Properties=species:S:1:pos:R:3:forces:R:3 energy=-23.11376165 pbc="T T T"
Pt      -1.39907000       2.42780000       8.00000000      -0.00408700       0.00288700      -0.10024800
Pt       1.40105000       0.81115000      10.27993000       0.01682800      -0.00981100       0.10610700
Pt       0.00195000       1.61892000      12.54765000      -0.01682200       0.00980600      -0.10603800
Pt       2.80207000       0.00227000      14.82758000       0.00408200      -0.00288100       0.10017800
4
Lattice="2.806 0.0 0.0 -1.403 2.430067283 0.0 0.0 0.0 22.83726" Properties=species:S:1:pos:R:3:forces:R:3 energy=-23.11481852 pbc="T T T"
Pt      -1.39937000       2.42797000       8.00000000      -0.00699700       0.00461400      -0.02714900
Pt       1.40183000       0.81070000      10.29035000       0.00908600      -0.00533300      -0.03422900
Pt       0.00117000       1.61937000      12.54691000      -0.00909200       0.00533900       0.03426000
Pt       2.80237000       0.00210000      14.83726000       0.00700300      -0.00462000       0.02711800
4
Lattice="2.805997698 0.0 0.0 1.402998849 2.430065289 0.0 0.0 0.0 26.873262579" Properties=species:S:1:pos:R:3:forces:R:3 energy=-23.10766428 pbc="T T T"
Pt       0.00000000       0.00000000      10.00000000      -0.00000000       0.00000000       0.01085200
Pt       1.40300000       0.81002000      12.29109000       0.00000000      -0.00000000       0.16624600
Pt       2.80600000       1.62004000      14.58218000      -0.00000000       0.00000000      -0.16624600
Pt       0.00000000       0.00000000      16.87326000       0.00000000       0.00000000      -0.01085200
