42
Lattice="8.417993093 0.0 0.0 4.208996546 7.290195867 0.0 0.0 0.0 29.886262579" Properties=species:S:1:pos:R:3:forces:R:3 energy=-257.32734157 pbc="T T T"
C        5.61200000       4.86013000      18.72826000       0.05918700       0.04237700       0.38484600
C        2.80600000       2.43007000      18.49926000      -0.03903200       0.04384100      -3.09653400
C        7.01499000       0.81002000      18.27026000       0.01824400       0.01153500      -3.45657200
O        5.61200000       4.86013000      19.88626000      -0.01900000      -0.01273700      -0.15800200
O        7.01499000       0.81002000      19.42826000      -0.00714200      -0.00659600       3.18855200
O        2.80600000       2.43007000      19.65726000       0.00525400      -0.01906900       1.58014000
Pt       4.20900000       4.05011000      14.58218000       0.13606000       0.07150200      -0.23598200
Pt       7.01499000       4.05011000      14.58218000      -0.11213500       0.02223800      -0.10983200
Pt      11.22399000       6.48017000      14.58218000      -0.02075000      -0.10319400      -0.43228400
Pt       5.61200000       6.48017000      14.58218000      -0.05013000      -0.11160000      -0.15122700
Pt       8.41799000       6.48017000      14.58218000       0.05432100       0.02464700      -0.13086800
Pt       0.00000000       0.00000000      16.87326000      -0.04555500       0.11561300       0.46187200
Pt       2.80600000       0.00000000      16.87326000       0.24713600      -0.17250800      -0.21725600
Pt       9.82099000       4.05011000      14.58218000      -0.00871000      -0.00150300      -0.29232500
Pt       4.20900000       2.43007000      16.87326000      -0.75097200      -0.29458900       1.08278300
Pt       7.01499000       2.43007000      16.87326000       0.20645900      -0.05955200       0.42276000
Pt       2.80600000       4.86013000      16.87326000      -0.43050200       0.16082800      -0.23872500
Pt       5.61200000       4.86013000      16.87326000       0.11269800       0.10443800       0.78169200
Pt       8.41799000       4.86013000      16.87326000       0.31098000       0.15305700      -0.19211000
Pt       5.61200000       0.00000000      16.87326000      -0.20914400      -0.27557000       0.54309500
Pt       1.40300000       2.43007000      16.87326000       0.54472000       0.10471200       1.22412100
Pt       0.00000000       0.00000000      10.00000000       0.05279000       0.00439400      -0.11258900
Pt       8.41799000       1.62004000      14.58218000       0.17912000       0.16232300      -0.31618900
Pt       2.80600000       0.00000000      10.00000000      -0.02786500       0.04316600      -0.07985000
Pt       5.61200000       0.00000000      10.00000000      -0.02910800       0.00905400      -0.09864900
Pt       1.40300000       2.43007000      10.00000000       0.00104300      -0.00990400      -0.25804000
Pt       4.20900000       2.43007000      10.00000000      -0.01971300       0.00875300      -0.08694200
Pt       7.01499000       2.43007000      10.00000000       0.00924400       0.00156300      -0.03470900
Pt       2.80600000       4.86013000      10.00000000       0.00054900      -0.02883800      -0.06760800
Pt       5.61200000       4.86013000      10.00000000      -0.02345400      -0.00904600      -0.09039300
Pt       8.41799000       4.86013000      10.00000000       0.02737900      -0.04374000      -0.08465500
Pt       1.40300000       0.81002000      12.29109000      -0.02128000       0.09332100       0.08697300
Pt       4.20900000       0.81002000      12.29109000       0.01513000      -0.05612700       0.16092500
Pt       7.01499000       0.81002000      12.29109000      -0.00902900      -0.09691700       0.08664300
Pt       2.80600000       3.24009000      12.29109000      -0.12361700      -0.07147700       0.13822800
Pt       5.61200000       3.24009000      12.29109000       0.02149300       0.04820100       0.23792900
Pt       8.41799000       3.24009000      12.29109000       0.09769700      -0.06150600       0.12690500
Pt       4.20900000       5.67015000      12.29109000       0.05422200       0.06069600       0.14667800
Pt       7.01499000       5.67015000      12.29109000      -0.00371600       0.01136200      -0.03322300
Pt       9.82099000       5.67015000      12.29109000      -0.03350500       0.06352100       0.12854000
Pt       2.80600000       1.62004000      14.58218000       0.00401400      -0.05622800      -0.55035400
Pt       5.61200000       1.62004000      14.58218000      -0.17337500       0.12956100      -0.25776200
42
Lattice="8.417993093 0.0 0.0 4.208996546 7.290195867 0.0 0.0 0.0 29.657262579" Properties=species:S:1:pos:R:3:forces:R:3 energy=-256.93103545 pbc="T T T"
C        4.20900000       0.81002000      18.27026000      -0.13546800       0.65097600      -3.00436300
C        7.01499000       0.00000000      18.49926000       0.55575200      -0.09510700      -2.70448400
C        7.01499000       5.67015000      18.27026000      -0.24891400      -0.57145300      -3.16231100
O        4.20900000       0.81002000      19.42826000      -0.01358300       0.14767100       2.83005600
O        7.01499000       5.67015000      19.42826000      -0.03613100      -0.11685900       2.92086000
O        7.01499000       0.00000000      19.65726000       0.01060700      -0.00712900       1.28278800
Pt       4.20900000       4.05011000      14.58218000       0.03842900      -0.05694300      -0.14944400
Pt       7.01499000       4.05011000      14.58218000       0.01297400      -0.16324700      -0.45217500
Pt      11.22399000       6.48017000      14.58218000      -0.11520800      -0.00175600      -0.48094900
Pt       5.61200000       6.48017000      14.58218000      -0.09443000       0.21126400      -0.25122900
Pt       8.41799000       6.48017000      14.58218000       0.21326000       0.05692600      -0.57689600
Pt       0.00000000       0.00000000      16.87326000      -0.54656600       0.11406100       1.20203200
Pt       2.80600000       0.00000000      16.87326000      -0.35579900       0.24366200       0.83278900
Pt       9.82099000       4.05011000      14.58218000      -0.06601800      -0.00158200      -0.16057900
Pt       4.20900000       2.43007000      16.87326000      -0.14060200       0.39738500       0.62000500
Pt       7.01499000       2.43007000      16.87326000       0.32783200       0.33833500      -0.21018900
Pt       2.80600000       4.86013000      16.87326000       0.03465300      -0.58449900      -0.18174600
Pt       5.61200000       4.86013000      16.87326000      -0.19450600      -0.22376900       0.57004800
Pt       8.41799000       4.86013000      16.87326000       0.16431100      -0.56840500       0.56893500
Pt       5.61200000       0.00000000      16.87326000       0.80389800      -0.12479400       1.51130100
Pt       1.40300000       2.43007000      16.87326000      -0.21999100       0.31481500      -0.14946000
Pt       0.00000000       0.00000000      10.00000000      -0.00484300       0.03306200      -0.06991300
Pt       8.41799000       1.62004000      14.58218000       0.01081800       0.02554800      -0.23478000
Pt       2.80600000       0.00000000      10.00000000      -0.00893100      -0.01514100      -0.03706400
Pt       5.61200000       0.00000000      10.00000000       0.01206200       0.00444600      -0.08189000
Pt       1.40300000       2.43007000      10.00000000      -0.03649100      -0.00541500      -0.08079900
Pt       4.20900000       2.43007000      10.00000000       0.03479000      -0.01389400      -0.06413600
Pt       7.01499000       2.43007000      10.00000000       0.00569200      -0.01878200      -0.07852300
Pt       2.80600000       4.86013000      10.00000000      -0.01058000       0.01604600      -0.09641300
Pt       5.61200000       4.86013000      10.00000000       0.01166300       0.00227700      -0.12562900
Pt       8.41799000       4.86013000      10.00000000       0.01272300       0.01464300      -0.10043600
Pt       1.40300000       0.81002000      12.29109000       0.00646900      -0.05215400       0.19043600
Pt       4.20900000       0.81002000      12.29109000       0.00103500      -0.00911600       0.23234000
Pt       7.01499000       0.81002000      12.29109000       0.00456100      -0.02672300       0.19995400
Pt       2.80600000       3.24009000      12.29109000       0.00723900       0.05976800      -0.04716200
Pt       5.61200000       3.24009000      12.29109000      -0.05627800       0.12163100       0.11348700
Pt       8.41799000       3.24009000      12.29109000       0.03383100       0.06498800       0.12068600
Pt       4.20900000       5.67015000      12.29109000       0.02480400      -0.05273600      -0.05374700
Pt       7.01499000       5.67015000      12.29109000      -0.02913200      -0.09033000       0.08140000
Pt       9.82099000       5.67015000      12.29109000       0.02142600      -0.05323000       0.13618300
Pt       2.80600000       1.62004000      14.58218000      -0.11621300      -0.01844500      -0.31552400
Pt       5.61200000       1.62004000      14.58218000       0.08085600       0.05400200      -0.54345800
42
Lattice="8.417993093 0.0 0.0 4.208996546 7.290195867 0.0 0.0 0.0 29.657262579" Properties=species:S:1:pos:R:3:forces:R:3 energy=-255.36381238 pbc="T T T"
C        8.41799000       3.24009000      18.27026000       0.81696900      -1.76981100      -3.22332500
C        7.01499000       4.86013000      18.49926000      -2.08752000       2.22127000      -2.45317000
C        2.80600000       2.43007000      18.49926000       0.59415400      -0.09593900      -2.74905900
O        8.41799000       3.24009000      19.42826000       1.56092600      -1.82884000       2.86522200
O        2.80600000       2.43007000      19.65726000      -0.00173600      -0.00228500       1.31802400
O        7.01499000       4.86013000      19.65726000      -1.17143900       1.39787000       1.12174900
Pt       4.20900000       4.05011000      14.58218000       0.14889100       0.15223000      -0.12012100
Pt       7.01499000       4.05011000      14.58218000      -0.11611400      -0.03282700      -0.81604600
Pt      11.22399000       6.48017000      14.58218000       0.02362500      -0.00772200      -0.20974700
Pt       5.61200000       6.48017000      14.58218000      -0.03532200      -0.01094900      -0.28883800
Pt       8.41799000       6.48017000      14.58218000       0.01568600      -0.12648600      -0.18802500
Pt       0.00000000       0.00000000      16.87326000      -0.23090200      -0.36981300      -0.11445900
Pt       2.80600000       0.00000000      16.87326000      -0.01470600       0.03343700      -0.14361600
Pt       9.82099000       4.05011000      14.58218000      -0.05453300       0.18678900      -0.39245300
Pt       4.20900000       2.43007000      16.87326000      -0.33867000      -0.20939000       1.22078500
Pt       7.01499000       2.43007000      16.87326000      -0.20045000      -0.65775400       0.55094600
Pt       2.80600000       4.86013000      16.87326000       0.31363900       0.75676200      -0.18859400
Pt       5.61200000       4.86013000      16.87326000       0.25217800       0.10362600       1.32318000
Pt       8.41799000       4.86013000      16.87326000      -0.17429800       0.60965300       1.40525600
Pt       5.61200000       0.00000000      16.87326000       0.23788600       0.05735600      -0.08415100
Pt       1.40300000       2.43007000      16.87326000       0.49360100      -0.35070700       1.65984300
Pt       0.00000000       0.00000000      10.00000000       0.03284900       0.01043400      -0.10746100
Pt       8.41799000       1.62004000      14.58218000       0.11053400      -0.01121200      -0.28357600
Pt       2.80600000       0.00000000      10.00000000      -0.04089900      -0.01167400      -0.06524200
Pt       5.61200000       0.00000000      10.00000000      -0.01981700       0.01677600      -0.10871600
Pt       1.40300000       2.43007000      10.00000000      -0.01949400      -0.00868000      -0.10081800
Pt       4.20900000       2.43007000      10.00000000      -0.00207300       0.02164100      -0.12279300
Pt       7.01499000       2.43007000      10.00000000       0.00469400      -0.01104200      -0.04815000
Pt       2.80600000       4.86013000      10.00000000       0.01153300      -0.03501000      -0.03936200
Pt       5.61200000       4.86013000      10.00000000       0.00548500       0.01142400      -0.09229800
Pt       8.41799000       4.86013000      10.00000000      -0.00752100      -0.00555500      -0.06774100
Pt       1.40300000       0.81002000      12.29109000       0.01948500       0.05469500       0.08055700
Pt       4.20900000       0.81002000      12.29109000       0.04487900       0.02109900      -0.07119500
Pt       7.01499000       0.81002000      12.29109000      -0.03698700      -0.10419000       0.06465700
Pt       2.80600000       3.24009000      12.29109000       0.00780300      -0.12166300       0.07842300
Pt       5.61200000       3.24009000      12.29109000      -0.09934000      -0.08541000       0.19625800
Pt       8.41799000       3.24009000      12.29109000       0.05711500      -0.01449000       0.24036100
Pt       4.20900000       5.67015000      12.29109000      -0.02249500       0.04697200       0.17089600
Pt       7.01499000       5.67015000      12.29109000       0.01616900       0.03112300       0.19421200
Pt       9.82099000       5.67015000      12.29109000       0.01036500       0.08474700       0.12485000
Pt       2.80600000       1.62004000      14.58218000      -0.09613800      -0.07834500      -0.51551500
Pt       5.61200000       1.62004000      14.58218000      -0.00801300       0.13188800      -0.02074700
42
Lattice="8.417993093 0.0 0.0 4.208996546 7.290195867 0.0 0.0 0.0 29.657262579" Properties=species:S:1:pos:R:3:forces:R:3 energy=-257.41064243 pbc="T T T"
C        4.20900000       5.67015000      18.27026000       0.00000000      -0.00239000      -3.23101300
C        8.41799000       2.43007000      18.49926000      -0.00000000       0.09604200      -2.80463600
C        4.20900000       0.81002000      18.27026000       0.00000000       0.00024100      -3.28960500
O        4.20900000       5.67015000      19.42826000       0.00000000       0.00223400       3.02469600
O        4.20900000       0.81002000      19.42826000       0.00000000      -0.00620600       3.01870000
O        8.41799000       2.43007000      19.65726000       0.00000000      -0.02040200       1.38486500
Pt       4.20900000       4.05011000      14.58218000       0.00000000      -0.12825300      -0.37078200
Pt       7.01499000       4.05011000      14.58218000      -0.06117800       0.03613200      -0.24755300
Pt      11.22399000       6.48017000      14.58218000      -0.10876700       0.05580100      -0.42122500
Pt       5.61200000       6.48017000      14.58218000       0.10876700       0.05580100      -0.42122500
Pt       8.41799000       6.48017000      14.58218000       0.00000000      -0.07245900      -0.44405300
Pt       0.00000000       0.00000000      16.87326000      -0.00000000      -0.16607700       0.39817000
Pt       2.80600000       0.00000000      16.87326000       0.12760600      -0.06379300       0.50296500
Pt       9.82099000       4.05011000      14.58218000       0.06117800       0.03613200      -0.24755300
Pt       4.20900000       2.43007000      16.87326000       0.00000000      -0.02547200       0.43979200
Pt       7.01499000       2.43007000      16.87326000       0.54423900       0.08585100       1.10652400
Pt       2.80600000       4.86013000      16.87326000      -0.17937800      -0.06495600       0.50322300
Pt       5.61200000       4.86013000      16.87326000       0.17937800      -0.06495600       0.50322300
Pt       8.41799000       4.86013000      16.87326000       0.00000000       0.12572600      -0.19638000
Pt       5.61200000       0.00000000      16.87326000      -0.12760600      -0.06379300       0.50296500
Pt       1.40300000       2.43007000      16.87326000      -0.54423900       0.08585100       1.10652400
Pt       0.00000000       0.00000000      10.00000000       0.00000000       0.02583100      -0.09157800
Pt       8.41799000       1.62004000      14.58218000       0.00000000      -0.13331500      -0.46930000
Pt       2.80600000       0.00000000      10.00000000      -0.01711300       0.00779500      -0.11803300
Pt       5.61200000       0.00000000      10.00000000       0.01711300       0.00779500      -0.11803300
Pt       1.40300000       2.43007000      10.00000000       0.00553900      -0.01759200      -0.07880500
Pt       4.20900000       2.43007000      10.00000000       0.00000000      -0.03559500      -0.05088200
Pt       7.01499000       2.43007000      10.00000000      -0.00553900      -0.01759200      -0.07880500
Pt       2.80600000       4.86013000      10.00000000      -0.01750100      -0.00811000      -0.06955700
Pt       5.61200000       4.86013000      10.00000000       0.01750100      -0.00811000      -0.06955700
Pt       8.41799000       4.86013000      10.00000000       0.00000000       0.01364000      -0.07216300
Pt       1.40300000       0.81002000      12.29109000      -0.00682200      -0.01266000       0.15611700
Pt       4.20900000       0.81002000      12.29109000       0.00000000      -0.08284500       0.09482700
Pt       7.01499000       0.81002000      12.29109000       0.00682200      -0.01266000       0.15611700
Pt       2.80600000       3.24009000      12.29109000      -0.03124800       0.01507700       0.18647600
Pt       5.61200000       3.24009000      12.29109000       0.03124800       0.01507700       0.18647600
Pt       8.41799000       3.24009000      12.29109000       0.00000000       0.00136200      -0.03614500
Pt       4.20900000       5.67015000      12.29109000       0.00000000       0.01601300      -0.03583300
Pt       7.01499000       5.67015000      12.29109000      -0.00314500       0.02470200       0.11367300
Pt       9.82099000       5.67015000      12.29109000       0.00314500       0.02470200       0.11367300
Pt       2.80600000       1.62004000      14.58218000      -0.12734100       0.13771700      -0.26814600
Pt       5.61200000       1.62004000      14.58218000       0.12734100       0.13771700      -0.26814600
42
Lattice="8.417993093 0.0 0.0 4.208996546 7.290195867 0.0 0.0 0.0 29.428262579" Properties=species:S:1:pos:R:3:forces:R:3 energy=-257.04640415 pbc="T T T"
C        8.41799000       3.24009000      18.27026000       0.62828900      -0.07194800      -2.92254100
C        7.01499000       5.67015000      18.27026000      -0.35605500       0.50616300      -3.04824800
C        7.01499000       0.81002000      18.27026000      -0.25351900      -0.55893400      -3.09128500
O        8.41799000       3.24009000      19.42826000       0.12150200      -0.02658900       2.76144000
O        7.01499000       0.81002000      19.42826000      -0.04296800      -0.11855600       2.88578900
O        7.01499000       5.67015000      19.42826000      -0.08738400       0.09326900       2.88140200
Pt       4.20900000       4.05011000      14.58218000       0.03098000       0.05953000      -0.10767800
Pt       7.01499000       4.05011000      14.58218000      -0.10614500      -0.15251300      -0.63683000
Pt      11.22399000       6.48017000      14.58218000       0.01466200      -0.08279500      -0.37454200
Pt       5.61200000       6.48017000      14.58218000      -0.18408900       0.09000600      -0.39693600
Pt       8.41799000       6.48017000      14.58218000       0.16733600      -0.00922700      -0.35389300
Pt       0.00000000       0.00000000      16.87326000      -0.07207400      -0.29486800       0.49186900
Pt       2.80600000       0.00000000      16.87326000       0.04231200       0.31452400       0.47730000
Pt       9.82099000       4.05011000      14.58218000       0.03218900       0.10006800      -0.30801300
Pt       4.20900000       2.43007000      16.87326000      -0.39252200       0.19106400      -0.19769700
Pt       7.01499000       2.43007000      16.87326000      -0.32846000      -0.08771100       0.78297500
Pt       2.80600000       4.86013000      16.87326000       0.33826300      -0.18621500      -0.20579300
Pt       5.61200000       4.86013000      16.87326000      -0.56438800       0.00431900       0.48787300
Pt       8.41799000       4.86013000      16.87326000       0.36509600       0.17765100       0.78061600
Pt       5.61200000       0.00000000      16.87326000       0.06117900       0.01864100       0.53469600
Pt       1.40300000       2.43007000      16.87326000       0.53004900       0.05921400       0.56325800
Pt       0.00000000       0.00000000      10.00000000      -0.01974600      -0.00170400      -0.10186000
Pt       8.41799000       1.62004000      14.58218000       0.08507100      -0.07964600      -0.67740300
Pt       2.80600000       0.00000000      10.00000000      -0.01858100       0.00531000      -0.11001700
Pt       5.61200000       0.00000000      10.00000000       0.03269400      -0.01660600      -0.09458300
Pt       1.40300000       2.43007000      10.00000000      -0.02135000      -0.01311200      -0.09689400
Pt       4.20900000       2.43007000      10.00000000       0.00761100       0.00162800      -0.10788700
Pt       7.01499000       2.43007000      10.00000000       0.00326100      -0.00703400      -0.10296400
Pt       2.80600000       4.86013000      10.00000000       0.00325300       0.02282300      -0.10035600
Pt       5.61200000       4.86013000      10.00000000      -0.02021100      -0.01380100      -0.08799200
Pt       8.41799000       4.86013000      10.00000000       0.02945900      -0.01260500      -0.09044100
Pt       1.40300000       0.81002000      12.29109000       0.11578200      -0.01221600       0.16438100
Pt       4.20900000       0.81002000      12.29109000      -0.05172900       0.00360000      -0.04050000
Pt       7.01499000       0.81002000      12.29109000      -0.02667100       0.00832400       0.22710000
Pt       2.80600000       3.24009000      12.29109000       0.04277700      -0.03452600      -0.02627000
Pt       5.61200000       3.24009000      12.29109000      -0.04288900      -0.00693900       0.16459400
Pt       8.41799000       3.24009000      12.29109000      -0.00485200       0.03587300       0.21949900
Pt       4.20900000       5.67015000      12.29109000       0.03316100      -0.03860600       0.18076900
Pt       7.01499000       5.67015000      12.29109000       0.01571600       0.02656500      -0.03644000
Pt       9.82099000       5.67015000      12.29109000      -0.06730800       0.00463100       0.16906300
Pt       2.80600000       1.62004000      14.58218000      -0.07813900       0.00626000      -0.11206500
Pt       5.61200000       1.62004000      14.58218000       0.03843600       0.09668900      -0.34349900
42
Lattice="8.417993093 0.0 0.0 4.208996546 7.290195867 0.0 0.0 0.0 29.657262579" Properties=species:S:1:pos:R:3:forces:R:3 energy=-257.14521873 pbc="T T T"
C        8.41799000       1.62004000      18.27026000       0.48501900      -0.12309300      -3.17485000
C        5.61200000       2.43007000      18.49926000      -0.60531200       0.15728200      -2.64443500
C        7.01499000       5.67015000      18.27026000       0.04053500       0.11146200      -3.41872700
O        8.41799000       1.62004000      19.42826000       0.09770900      -0.07036400       2.93510700
O        7.01499000       5.67015000      19.42826000       0.00177600      -0.02636100       3.06990200
O        5.61200000       2.43007000      19.65726000       0.00493700      -0.02928700       1.24070900
Pt       4.20900000       4.05011000      14.58218000       0.01436500       0.06822900      -0.22296400
Pt       7.01499000       4.05011000      14.58218000       0.00646800      -0.11114700      -0.54852200
Pt      11.22399000       6.48017000      14.58218000      -0.01915500       0.02038500      -0.21530100
Pt       5.61200000       6.48017000      14.58218000      -0.07512400      -0.00039300      -0.48748800
Pt       8.41799000       6.48017000      14.58218000       0.10662500       0.05459500      -0.47544400
Pt       0.00000000       0.00000000      16.87326000      -0.24811900      -0.13380100       0.57661300
Pt       2.80600000       0.00000000      16.87326000       0.16757000       0.06491700       0.55040200
Pt       9.82099000       4.05011000      14.58218000      -0.02533700       0.07153000      -0.16643300
Pt       4.20900000       2.43007000      16.87326000       0.21872500      -0.05878600       1.21923600
Pt       7.01499000       2.43007000      16.87326000      -0.44773500      -0.28935200       1.48831200
Pt       2.80600000       4.86013000      16.87326000      -0.13151800       0.11048100      -0.11136200
Pt       5.61200000       4.86013000      16.87326000      -0.31367500       0.33734700       0.47583300
Pt       8.41799000       4.86013000      16.87326000       0.40865600       0.25403400       0.52726300
Pt       5.61200000       0.00000000      16.87326000       0.06034800      -0.50937100      -0.20853200
Pt       1.40300000       2.43007000      16.87326000       0.23840300       0.13181100       0.50556200
Pt       0.00000000       0.00000000      10.00000000      -0.01653500       0.00842400      -0.10246800
Pt       8.41799000       1.62004000      14.58218000      -0.13667800       0.08031900      -0.48743600
Pt       2.80600000       0.00000000      10.00000000      -0.01142100       0.01467600      -0.14017400
Pt       5.61200000       0.00000000      10.00000000       0.02159500       0.02321100      -0.09561000
Pt       1.40300000       2.43007000      10.00000000      -0.02828900      -0.04549500      -0.05000900
Pt       4.20900000       2.43007000      10.00000000       0.03679900      -0.02576200      -0.06906300
Pt       7.01499000       2.43007000      10.00000000      -0.01287300      -0.00989800      -0.08990500
Pt       2.80600000       4.86013000      10.00000000      -0.00080000       0.04903200      -0.07818300
Pt       5.61200000       4.86013000      10.00000000       0.00023900       0.00528600      -0.05378200
Pt       8.41799000       4.86013000      10.00000000      -0.00644800      -0.01890900      -0.06466100
Pt       1.40300000       0.81002000      12.29109000       0.06257800      -0.06621100       0.06294300
Pt       4.20900000       0.81002000      12.29109000      -0.08721900      -0.03400000       0.06741800
Pt       7.01499000       0.81002000      12.29109000       0.01354500      -0.02296200       0.16116600
Pt       2.80600000       3.24009000      12.29109000      -0.02642500      -0.03507200      -0.01411100
Pt       5.61200000       3.24009000      12.29109000      -0.01382400      -0.00330800       0.22431400
Pt       8.41799000       3.24009000      12.29109000       0.04648400       0.01189600       0.19389100
Pt       4.20900000       5.67015000      12.29109000       0.00674800       0.02821000       0.14550500
Pt       7.01499000       5.67015000      12.29109000       0.03232800       0.07792600       0.08285800
Pt       9.82099000       5.67015000      12.29109000      -0.02889400      -0.01125200       0.07637900
Pt       2.80600000       1.62004000      14.58218000       0.12698800       0.03073600      -0.11381900
Pt       5.61200000       1.62004000      14.58218000       0.03694000      -0.08696500      -0.57013300
42
Lattice="8.417993093 0.0 0.0 4.208996546 7.290195867 0.0 0.0 0.0 29.886262579" Properties=species:S:1:pos:R:3:forces:R:3 energy=-257.25617873 pbc="T T T"
C        0.00000000       0.00000000      18.72826000      -0.00000000       0.18531500       0.40145600
C        4.20900000       0.00000000      18.49926000      -0.00000000       0.02825300      -2.97371300
C        4.20900000       4.05011000      18.27026000      -0.00000000      -0.15087100      -3.52993900
O        0.00000000       0.00000000      19.88626000      -0.00000000      -0.01953300      -0.20538300
O        4.20900000       4.05011000      19.42826000      -0.00000000       0.00749500       3.22426700
O        4.20900000       0.00000000      19.65726000      -0.00000000      -0.02050100       1.54152800
Pt       4.20900000       4.05011000      14.58218000      -0.00000000      -0.07008900      -0.58095300
Pt       7.01499000       4.05011000      14.58218000       0.05055100      -0.00924200      -0.24633300
Pt      11.22399000       6.48017000      14.58218000      -0.01510300       0.19575100      -0.08777200
Pt       5.61200000       6.48017000      14.58218000       0.01510300       0.19575100      -0.08777200
Pt       8.41799000       6.48017000      14.58218000      -0.00000000      -0.10169900      -0.57022900
Pt       0.00000000       0.00000000      16.87326000      -0.00000000       0.28904400       0.78976000
Pt       2.80600000       0.00000000      16.87326000       0.71195900      -0.07598900       1.10795400
Pt       9.82099000       4.05011000      14.58218000      -0.05055100      -0.00924200      -0.24633300
Pt       4.20900000       2.43007000      16.87326000      -0.00000000       0.32391200       0.43474000
Pt       7.01499000       2.43007000      16.87326000       0.19338000       0.34733500      -0.21991600
Pt       2.80600000       4.86013000      16.87326000      -0.29237500      -0.36096500       0.48808100
Pt       5.61200000       4.86013000      16.87326000       0.29237500      -0.36096500       0.48808100
Pt       8.41799000       4.86013000      16.87326000       0.00000000      -0.53935700      -0.07939200
Pt       5.61200000       0.00000000      16.87326000      -0.71195900      -0.07598900       1.10795400
Pt       1.40300000       2.43007000      16.87326000      -0.19338000       0.34733500      -0.21991600
Pt       0.00000000       0.00000000      10.00000000      -0.00000000      -0.05299600      -0.08768900
Pt       8.41799000       1.62004000      14.58218000      -0.00000000      -0.09283200      -0.15868700