24
Lattice="5.612 0.0 0.0 -2.806 4.860134566 0.0 0.0 0.0 25.62932" Properties=species:S:1:pos:R:3:forces:R:3 energy=-154.61066361 pbc="T T T"
C        1.38073000       4.08517000      16.44814000      -0.00469000       0.00012400       0.19171600
C       -0.02227000       1.65511000      16.44814000      -0.00469000       0.00012400       0.19171600
C        2.78373000       1.65511000      16.44814000      -0.00469000       0.00012400       0.19171600
C       -1.42527000       4.08517000      16.44814000      -0.00469000       0.00012400       0.19171600
O        2.78169000       1.65676000      17.62932000      -0.00694600      -0.00098000      -0.19971800
O        1.37869000       4.08682000      17.62932000      -0.00694600      -0.00098000      -0.19971800
O       -1.42731000       4.08682000      17.62932000      -0.00694600      -0.00098000      -0.19971800
O       -0.02431000       1.65676000      17.62932000      -0.00694600      -0.00098000      -0.19971800
Pt       2.78805000       1.63481000      12.61645000      -0.00777900       0.01446500      -0.04577600
Pt       1.40557000       2.42925000       8.00000000       0.00353300      -0.00160800      -0.08966900
Pt       2.79808000       3.24647000      10.30833000      -0.00159400       0.00199500       0.07626800
Pt       1.38505000       4.06488000      12.61645000      -0.00777900       0.01446500      -0.04577600
Pt       1.37178000       2.46832000      15.04109000       0.01747600      -0.01399600       0.06718000
Pt      -2.80343000       4.85932000       8.00000000       0.00353300      -0.00160800      -0.08966900
Pt       2.77478000       0.03826000      15.04109000       0.01747600      -0.01399600       0.06718000
Pt      -1.40043000       2.42925000       8.00000000       0.00353300      -0.00160800      -0.08966900
Pt       5.58078000       0.03826000      15.04109000       0.01747600      -0.01399600       0.06718000
Pt       4.20108000       0.81641000      10.30833000      -0.00159400       0.00199500       0.07626800
Pt      -0.01795000       1.63481000      12.61645000      -0.00777900       0.01446500      -0.04577600
Pt      -0.00792000       3.24647000      10.30833000      -0.00159400       0.00199500       0.07626800
Pt      -1.42095000       4.06488000      12.61645000      -0.00777900       0.01446500      -0.04577600
Pt       4.17778000       2.46832000      15.04109000       0.01747600      -0.01399600       0.06718000
Pt       1.39508000       0.81641000      10.30833000      -0.00159400       0.00199500       0.07626800
Pt       0.00257000       4.85932000       8.00000000       0.00353300      -0.00160800      -0.08966900
24
Lattice="5.612 0.0 0.0 -2.806 4.860134566 0.0 0.0 0.0 25.62752" Properties=species:S:1:pos:R:3:forces:R:3 energy=-154.60822929 pbc="T T T"
C        1.38081000       4.08527000      16.44846000      -0.00324600      -0.00041600      -0.04853000
C       -0.02219000       1.65520000      16.44846000      -0.00324600      -0.00041600      -0.04853000
C        2.78381000       1.65520000      16.44846000      -0.00324600      -0.00041600      -0.04853000
C       -1.42519000       4.08527000      16.44846000      -0.00324600      -0.00041600      -0.04853000
O        2.78176000       1.65681000      17.62752000      -0.00734200      -0.00059200      -0.02184400
O        1.37876000       4.08688000      17.62752000      -0.00734200      -0.00059200      -0.02184400
O       -1.42724000       4.08688000      17.62752000      -0.00734200      -0.00059200      -0.02184400
O       -0.02424000       1.65681000      17.62752000      -0.00734200      -0.00059200      -0.02184400
Pt       2.78808000       1.63470000      12.61675000      -0.00804700       0.01374800      -0.08637900
Pt       1.40551000       2.42927000       8.00000000       0.00469200      -0.00206500      -0.10892900
Pt       2.79807000       3.24648000      10.30524000      -0.00135300       0.00363900       0.11747900
Pt       1.38508000       4.06477000      12.61675000      -0.00804700       0.01374800      -0.08637900
Pt       1.37166000       2.46826000      15.03611000       0.01529600      -0.01431400       0.14820500
Pt      -2.80349000       4.85934000       8.00000000       0.00469200      -0.00206500      -0.10892900
Pt       2.77466000       0.03819000      15.03611000       0.01529600      -0.01431400       0.14820500
Pt      -1.40049000       2.42927000       8.00000000       0.00469200      -0.00206500      -0.10892900
Pt       5.58066000       0.03819000      15.03611000       0.01529600      -0.01431400       0.14820500
Pt       4.20107000       0.81641000      10.30524000      -0.00135300       0.00363900       0.11747900
Pt      -0.01792000       1.63470000      12.61675000      -0.00804700       0.01374800      -0.08637900
Pt      -0.00793000       3.24648000      10.30524000      -0.00135300       0.00363900       0.11747900
Pt      -1.42092000       4.06477000      12.61675000      -0.00804700       0.01374800      -0.08637900
Pt       4.17766000       2.46826000      15.03611000       0.01529600      -0.01431400       0.14820500
Pt       1.39507000       0.81641000      10.30524000      -0.00135300       0.00363900       0.11747900
Pt       0.00251000       4.85934000       8.00000000       0.00469200      -0.00206500      -0.10892900
24
Lattice="5.612 0.0 0.0 -2.806 4.860134566 0.0 0.0 0.0 25.62997" Properties=species:S:1:pos:R:3:forces:R:3 energy=-154.61057056 pbc="T T T"
C        1.38070000       4.08514000      16.44803000      -0.00545300       0.00009300       0.27243400
C       -0.02230000       1.65507000      16.44803000      -0.00545300       0.00009300       0.27243400
C        2.78370000       1.65507000      16.44803000      -0.00545300       0.00009300       0.27243400
C       -1.42530000       4.08514000      16.44803000      -0.00545300       0.00009300       0.27243400
O        2.78167000       1.65674000      17.62997000      -0.00679100      -0.00082900      -0.26078400
O        1.37867000       4.08681000      17.62997000      -0.00679100      -0.00082900      -0.26078400
O       -1.42733000       4.08681000      17.62997000      -0.00679100      -0.00082900      -0.26078400
O       -0.02433000       1.65674000      17.62997000      -0.00679100      -0.00082900      -0.26078400
Pt       2.78803000       1.63485000      12.61635000      -0.00762300       0.01468300      -0.03276100
Pt       1.40559000       2.42924000       8.00000000       0.00374000      -0.00137900      -0.08147000
Pt       2.79809000       3.24647000      10.30945000      -0.00257000       0.00130400       0.06048300
Pt       1.38503000       4.06492000      12.61635000      -0.00762300       0.01468300      -0.03276100
Pt       1.37182000       2.46835000      15.04288000       0.01869700      -0.01387300       0.04209800
Pt      -2.80341000       4.85931000       8.00000000       0.00374000      -0.00137900      -0.08147000
Pt       2.77482000       0.03828000      15.04288000       0.01869700      -0.01387300       0.04209800
Pt      -1.40041000       2.42924000       8.00000000       0.00374000      -0.00137900      -0.08147000
Pt       5.58082000       0.03828000      15.04288000       0.01869700      -0.01387300       0.04209800
Pt       4.20109000       0.81640000      10.30945000      -0.00257000       0.00130400       0.06048300
Pt      -0.01797000       1.63485000      12.61635000      -0.00762300       0.01468300      -0.03276100
Pt      -0.00791000       3.24647000      10.30945000      -0.00257000       0.00130400       0.06048300
Pt      -1.42097000       4.06492000      12.61635000      -0.00762300       0.01468300      -0.03276100
Pt       4.17782000       2.46835000      15.04288000       0.01869700      -0.01387300       0.04209800
Pt       1.39509000       0.81640000      10.30945000      -0.00257000       0.00130400       0.06048300
Pt       0.00259000       4.85931000       8.00000000       0.00374000      -0.00137900      -0.08147000
24
Lattice="5.612 0.0 0.0 -2.806 4.860134566 0.0 0.0 0.0 25.62991" Properties=species:S:1:pos:R:3:forces:R:3 energy=-154.61270823 pbc="T T T"
C        1.38058000       4.08503000      16.45026000      -0.00399700       0.00077200       0.09194000
C       -0.02242000       1.65497000      16.45026000      -0.00399700       0.00077200       0.09194000
C        2.78358000       1.65497000      16.45026000      -0.00399700       0.00077200       0.09194000
C       -1.42542000       4.08503000      16.45026000      -0.00399700       0.00077200       0.09194000
O        2.78159000       1.65667000      17.62991000      -0.00647700      -0.00055500      -0.02632900
O        1.37859000       4.08674000      17.62991000      -0.00647700      -0.00055500      -0.02632900
O       -1.42741000       4.08674000      17.62991000      -0.00647700      -0.00055500      -0.02632900
O       -0.02441000       1.65667000      17.62991000      -0.00647700      -0.00055500      -0.02632900
Pt       2.78798000       1.63499000      12.61622000      -0.00707400       0.01436600       0.00960000
Pt       1.40565000       2.42922000       8.00000000       0.00438300      -0.00167600      -0.05878200
Pt       2.79810000       3.24648000      10.31275000       0.00132300       0.00233600       0.01418000
Pt       1.38498000       4.06505000      12.61622000      -0.00707400       0.01436600       0.00960000
Pt       1.37200000       2.46841000      15.04811000       0.01184200      -0.01524200      -0.03060800
Pt      -2.80335000       4.85928000       8.00000000       0.00438300      -0.00167600      -0.05878200
Pt       2.77500000       0.03834000      15.04811000       0.01184200      -0.01524200      -0.03060800
Pt      -1.40035000       2.42922000       8.00000000       0.00438300      -0.00167600      -0.05878200
Pt       5.58100000       0.03834000      15.04811000       0.01184200      -0.01524200      -0.03060800
Pt       4.20110000       0.81641000      10.31275000       0.00132300       0.00233600       0.01418000
Pt      -0.01802000       1.63499000      12.61622000      -0.00707400       0.01436600       0.00960000
Pt      -0.00790000       3.24648000      10.31275000       0.00132300       0.00233600       0.01418000
Pt      -1.42102000       4.06505000      12.61622000      -0.00707400       0.01436600       0.00960000
Pt       4.17800000       2.46841000      15.04811000       0.01184200      -0.01524200      -0.03060800
Pt       1.39510000       0.81641000      10.31275000       0.00132300       0.00233600       0.01418000
Pt       0.00265000       4.85928000       8.00000000       0.00438300      -0.00167600      -0.05878200
24
Lattice="5.612 0.0 0.0 -2.806 4.860134566 0.0 0.0 0.0 25.62994" Properties=species:S:1:pos:R:3:forces:R:3 energy=-154.61208489 pbc="T T T"
C        1.38064000       4.08509000      16.44910000      -0.00477300      -0.00003200       0.18611100
C       -0.02236000       1.65502000      16.44910000      -0.00477300      -0.00003200       0.18611100
C        2.78364000       1.65502000      16.44910000      -0.00477300      -0.00003200       0.18611100
C       -1.42536000       4.08509000      16.44910000      -0.00477300      -0.00003200       0.18611100
O        2.78163000       1.65671000      17.62994000      -0.00667900      -0.00132700      -0.14900700
O        1.37863000       4.08677000      17.62994000      -0.00667900      -0.00132700      -0.14900700
O       -1.42737000       4.08677000      17.62994000      -0.00667900      -0.00132700      -0.14900700
O       -0.02437000       1.65671000      17.62994000      -0.00667900      -0.00132700      -0.14900700
Pt       2.78801000       1.63492000      12.61629000      -0.00739300       0.01389200      -0.01280500
Pt       1.40562000       2.42923000       8.00000000       0.00401500      -0.00215600      -0.07089600
Pt       2.79809000       3.24647000      10.31103000      -0.00073500       0.00109300       0.03875200
Pt       1.38501000       4.06498000      12.61629000      -0.00739300       0.01389200      -0.01280500
Pt       1.37190000       2.46838000      15.04538000       0.01556400      -0.01147000       0.00784400
Pt      -2.80338000       4.85930000       8.00000000       0.00401500      -0.00215600      -0.07089600
Pt       2.77490000       0.03831000      15.04538000       0.01556400      -0.01147000       0.00784400
Pt      -1.40038000       2.42923000       8.00000000       0.00401500      -0.00215600      -0.07089600
Pt       5.58090000       0.03831000      15.04538000       0.01556400      -0.01147000       0.00784400
Pt       4.20109000       0.81640000      10.31103000      -0.00073500       0.00109300       0.03875200
Pt      -0.01799000       1.63492000      12.61629000      -0.00739300       0.01389200      -0.01280500
Pt      -0.00791000       3.24647000      10.31103000      -0.00073500       0.00109300       0.03875200
Pt      -1.42099000       4.06498000      12.61629000      -0.00739300       0.01389200      -0.01280500
Pt       4.17790000       2.46838000      15.04538000       0.01556400      -0.01147000       0.00784400
Pt       1.39509000       0.81640000      10.31103000      -0.00073500       0.00109300       0.03875200
Pt       0.00262000       4.85930000       8.00000000       0.00401500      -0.00215600      -0.07089600
