40
Lattice="8.417993093 0.0 0.0 4.208996546 7.290195867 0.0 0.0 0.0 29.428262579" Properties=species:S:1:pos:R:3:forces:R:3 energy=-240.96804069 pbc="T T T"
C        1.40300000       0.81002000      18.27026000      -0.36917100       0.49474700      -3.16707900
C        7.01499000       5.67015000      18.27026000       0.24387800      -0.56708600      -3.16707900
O        1.40300000       0.81002000      19.42826000      -0.07962100       0.09633700       2.92861900
O        7.01499000       5.67015000      19.42826000       0.04362000      -0.11712300       2.92861900
Pt       8.41799000       4.86013000      16.87326000       0.28294400      -0.15743500       0.62790100
Pt       9.82099000       4.05011000      14.58218000      -0.06514600      -0.03761200      -0.14228400
Pt       4.20900000       4.05011000      14.58218000       0.10069000       0.02616400      -0.16993000
Pt       7.01499000       4.05011000      14.58218000      -0.01590000      -0.12533900      -0.42194200
Pt      11.22399000       6.48017000      14.58218000       0.07300300       0.07411800      -0.16993000
Pt       5.61200000       6.48017000      14.58218000      -0.10442100      -0.06028800      -0.70818800
Pt       8.41799000       6.48017000      14.58218000       0.01889200       0.11363900      -0.36916700
Pt       0.00000000       0.00000000      16.87326000      -0.54803000       0.02016800       0.60358000
Pt       5.61200000       1.62004000      14.58218000       0.04096400       0.02365100      -0.16531100
Pt       1.40300000       2.43007000      16.87326000       0.00512900       0.32375400       0.62790100
Pt       4.20900000       2.43007000      16.87326000       0.33496600       0.18603700      -0.09208100
Pt       7.01499000       2.43007000      16.87326000      -0.31613300      -0.18251900      -0.16322900
Pt       2.80600000       4.86013000      16.87326000      -0.03347600      -0.01932700      -0.09605100
Pt       5.61200000       4.86013000      16.87326000      -0.25654900      -0.48469100       0.60358000
Pt       2.80600000       0.00000000      16.87326000       0.37915800       0.21890700       0.85595900
Pt       5.61200000       0.00000000      16.87326000       0.32859600       0.19707100      -0.09208100
Pt       0.00000000       0.00000000      10.00000000      -0.00994000       0.00385700      -0.08348500
Pt       9.82099000       5.67015000      12.29109000       0.02856300      -0.03625800      -0.03317000
Pt       2.80600000       0.00000000      10.00000000       0.00481500       0.00278000      -0.07812100
Pt       5.61200000       0.00000000      10.00000000       0.00014100       0.04283700      -0.09492400
Pt       1.40300000       2.43007000      10.00000000      -0.03483700      -0.01896800      -0.08243500
Pt       4.20900000       2.43007000      10.00000000       0.03716800      -0.02129600      -0.09492400
Pt       7.01499000       2.43007000      10.00000000      -0.01136500      -0.00656200      -0.10774100
Pt       2.80600000       4.86013000      10.00000000       0.02051600       0.01184500      -0.10807200
Pt       5.61200000       4.86013000      10.00000000      -0.00163000      -0.01053700      -0.08348500
Pt       8.41799000       1.62004000      14.58218000      -0.11649600       0.04890000      -0.42194200
Pt       8.41799000       4.86013000      10.00000000      -0.03384600      -0.02068600      -0.08243500
Pt       4.20900000       0.81002000      12.29109000      -0.01411500      -0.00814900       0.18580500
Pt       7.01499000       0.81002000      12.29109000      -0.02351600      -0.04737900       0.20110300
Pt       2.80600000       3.24009000      12.29109000      -0.01711800       0.04286500      -0.03317000
Pt       5.61200000       3.24009000      12.29109000      -0.05279000       0.00332400       0.20110300
Pt       8.41799000       3.24009000      12.29109000       0.07424900       0.04286800       0.19076100
Pt       4.20900000       5.67015000      12.29109000      -0.07398700      -0.04271600       0.17105800
Pt       7.01499000       5.67015000      12.29109000       0.03208300       0.00555500       0.23571800
Pt       1.40300000       0.81002000      12.29109000       0.02085200       0.02500700       0.23571800
Pt       2.80600000       1.62004000      14.58218000       0.10786000      -0.04045900      -0.36916700
40
Lattice="8.417993093 0.0 0.0 4.208996546 7.290195867 0.0 0.0 0.0 29.428262579" Properties=species:S:1:pos:R:3:forces:R:3 energy=-241.17199238 pbc="T T T"
C        7.01499000       4.05011000      18.27026000      -0.00000000       0.00000000      -3.30111700
C       11.22399000       6.48017000      18.27026000       0.00000000       0.00000000      -3.27282900
O        7.01499000       4.05011000      19.42826000       0.00000000       0.00000000       3.02336800
O       11.22399000       6.48017000      19.42826000       0.00000000       0.00000000       3.01974400
Pt       8.41799000       4.86013000      16.87326000      -0.07654700      -0.04419400       0.52720100
Pt       9.82099000       4.05011000      14.58218000       0.01699700      -0.01729700      -0.26080200
Pt       4.20900000       4.05011000      14.58218000      -0.01699700      -0.01729700      -0.26080200
Pt       7.01499000       4.05011000      14.58218000      -0.00000000       0.00000000      -0.61564700
Pt      11.22399000       6.48017000      14.58218000      -0.00000000       0.00000000      -0.61218900
Pt       5.61200000       6.48017000      14.58218000       0.00648100       0.02336900      -0.26080200
Pt       8.41799000       6.48017000      14.58218000      -0.00648100       0.02336900      -0.26080200
Pt       0.00000000       0.00000000      16.87326000       0.21196300       0.12237700       0.57656600
Pt       5.61200000       1.62004000      14.58218000      -0.02347800      -0.00607200      -0.26080200
Pt       1.40300000       2.43007000      16.87326000       0.30139200      -0.17400900      -0.09292500
Pt       4.20900000       2.43007000      16.87326000      -0.30139200      -0.17400900      -0.09292500
Pt       7.01499000       2.43007000      16.87326000      -0.00000000       0.08838900       0.52720100
Pt       2.80600000       4.86013000      16.87326000      -0.00000000      -0.24475400       0.57656600
Pt       5.61200000       4.86013000      16.87326000       0.07654700      -0.04419400       0.52720100
Pt       2.80600000       0.00000000      16.87326000       0.00000000       0.34801700      -0.09292500
Pt       5.61200000       0.00000000      16.87326000      -0.21196300       0.12237700       0.57656600
Pt       0.00000000       0.00000000      10.00000000       0.01356000       0.00782900      -0.08157400
Pt       9.82099000       5.67015000      12.29109000      -0.04772100      -0.02755200       0.22959600
Pt       2.80600000       0.00000000      10.00000000      -0.00000000      -0.02661200      -0.08845600
Pt       5.61200000       0.00000000      10.00000000      -0.01356000       0.00782900      -0.08157400
Pt       1.40300000       2.43007000      10.00000000      -0.02304600       0.01330600      -0.08845600
Pt       4.20900000       2.43007000      10.00000000       0.02304600       0.01330600      -0.08845600
Pt       7.01499000       2.43007000      10.00000000       0.00000000      -0.02760600      -0.08872000
Pt       2.80600000       4.86013000      10.00000000       0.00000000      -0.01565800      -0.08157400
Pt       5.61200000       4.86013000      10.00000000      -0.02390700       0.01380300      -0.08872000
Pt       8.41799000       1.62004000      14.58218000       0.02347800      -0.00607200      -0.26080200
Pt       8.41799000       4.86013000      10.00000000       0.02390700       0.01380300      -0.08872000
Pt       4.20900000       0.81002000      12.29109000      -0.02918000       0.01684700       0.10675000
Pt       7.01499000       0.81002000      12.29109000       0.00000000       0.05510300       0.22959600
Pt       2.80600000       3.24009000      12.29109000       0.00000000      -0.03369400       0.10675000
Pt       5.61200000       3.24009000      12.29109000       0.00785500       0.00453500       0.10738800
Pt       8.41799000       3.24009000      12.29109000      -0.00785500       0.00453500       0.10738800
Pt       4.20900000       5.67015000      12.29109000       0.04772100      -0.02755200       0.22959600
Pt       7.01499000       5.67015000      12.29109000       0.00000000      -0.00907000       0.10738800
Pt       1.40300000       0.81002000      12.29109000       0.02918000       0.01684700       0.10675000
Pt       2.80600000       1.62004000      14.58218000       0.00000000       0.00000000      -0.26399400
40
Lattice="8.417993093 0.0 0.0 4.208996546 7.290195867 0.0 0.0 0.0 29.657262579" Properties=species:S:1:pos:R:3:forces:R:3 energy=-240.80377619 pbc="T T T"
C        2.80600000       2.43007000      18.49926000      -0.57376100       0.24357800      -2.79596100
C        5.61200000       1.62004000      18.27026000       0.49712800      -0.13776600      -3.25035100
O        2.80600000       2.43007000      19.65726000      -0.00626300      -0.03733000       1.32646300
O        5.61200000       1.62004000      19.42826000       0.09662000      -0.06286100       2.98748200
Pt       8.41799000       4.86013000      16.87326000      -0.11308100       0.12315900      -0.04705400
Pt       9.82099000       4.05011000      14.58218000      -0.05254600       0.02940400      -0.32167600
Pt       4.20900000       4.05011000      14.58218000       0.01445400      -0.00316500      -0.29552200
Pt       7.01499000       4.05011000      14.58218000       0.03415800       0.03862900      -0.22536700
Pt      11.22399000       6.48017000      14.58218000       0.03108000      -0.06071800      -0.26934900
Pt       5.61200000       6.48017000      14.58218000       0.00783300      -0.01671800      -0.29090000
Pt       8.41799000       6.48017000      14.58218000      -0.01927900      -0.03389500      -0.24514500
Pt       0.00000000       0.00000000      16.87326000       0.18652400      -0.27067000      -0.09717800
Pt       5.61200000       1.62004000      14.58218000      -0.09678800       0.09112200      -0.48507600
Pt       1.40300000       2.43007000      16.87326000       0.22566800      -0.10080000       1.32375300
Pt       4.20900000       2.43007000      16.87326000      -0.43841400       0.06614800       1.59971400
Pt       7.01499000       2.43007000      16.87326000       0.19487700       0.11393000       0.62937800
Pt       2.80600000       4.86013000      16.87326000      -0.01176000       0.55909400      -0.04653200
Pt       5.61200000       4.86013000      16.87326000       0.12463700       0.47369700      -0.06983000
Pt       2.80600000       0.00000000      16.87326000      -0.26340400      -0.69180600      -0.08036500
Pt       5.61200000       0.00000000      16.87326000       0.07071200      -0.31945400       0.68850500
Pt       0.00000000       0.00000000      10.00000000      -0.00944700       0.01983100      -0.13042000
Pt       9.82099000       5.67015000      12.29109000       0.01879400       0.06767200       0.15429200
Pt       2.80600000       0.00000000      10.00000000       0.02092900       0.01018900      -0.08207300
Pt       5.61200000       0.00000000      10.00000000      -0.02591000       0.00371200      -0.09552000
Pt       1.40300000       2.43007000      10.00000000       0.00077900       0.00011200      -0.05752300
Pt       4.20900000       2.43007000      10.00000000      -0.00910100       0.00429800      -0.05058300
Pt       7.01499000       2.43007000      10.00000000       0.00558500      -0.00755000      -0.03076600
Pt       2.80600000       4.86013000      10.00000000       0.00134700       0.00451600      -0.04657600
Pt       5.61200000       4.86013000      10.00000000      -0.00170700      -0.01497100      -0.07071000
Pt       8.41799000       1.62004000      14.58218000       0.12260900       0.10308300      -0.09443500
Pt       8.41799000       4.86013000      10.00000000      -0.00527900       0.00771300      -0.07642900
Pt       4.20900000       0.81002000      12.29109000       0.00602200      -0.02577700       0.17810500
Pt       7.01499000       0.81002000      12.29109000       0.02840400      -0.09811700       0.06840500
Pt       2.80600000       3.24009000      12.29109000       0.01183800      -0.00702000       0.24491400
Pt       5.61200000       3.24009000      12.29109000      -0.00714900       0.00597800       0.21252900
Pt       8.41799000       3.24009000      12.29109000      -0.01222300      -0.04268300       0.23907000
Pt       4.20900000       5.67015000      12.29109000       0.03684000       0.07928000       0.03360200
Pt       7.01499000       5.67015000      12.29109000      -0.04698500       0.03086700       0.08524900
Pt       1.40300000       0.81002000      12.29109000      -0.05089500      -0.06222400       0.07459200
Pt       2.80600000       1.62004000      14.58218000       0.00715400      -0.08248600      -0.59071200
40
Lattice="8.417993093 0.0 0.0 4.208996546 7.290195867 0.0 0.0 0.0 29.657262579" Properties=species:S:1:pos:R:3:forces:R:3 energy=-241.04049697 pbc="T T T"
C        5.61200000       3.24009000      18.27026000       0.02652500       0.08626600      -3.44542900
C        4.20900000       0.00000000      18.49926000      -0.03422700      -0.02462900      -2.94751300
O        5.61200000       3.24009000      19.42826000       0.00223100      -0.01918400       3.09766400
O        4.20900000       0.00000000      19.65726000       0.01346900      -0.01171500       1.43654700
Pt       8.41799000       4.86013000      16.87326000       0.31589700      -0.33596900      -0.10840600
Pt       9.82099000       4.05011000      14.58218000      -0.02820300       0.02700400      -0.20527500
Pt       4.20900000       4.05011000      14.58218000      -0.10931200       0.04445000      -0.48445100
Pt       7.01499000       4.05011000      14.58218000       0.11145300       0.04562500      -0.44604900
Pt      11.22399000       6.48017000      14.58218000      -0.13100100       0.07855300      -0.05948200
Pt       5.61200000       6.48017000      14.58218000       0.10157500       0.01918800      -0.05393500
Pt       8.41799000       6.48017000      14.58218000       0.01486700      -0.13184900      -0.54062100
Pt       0.00000000       0.00000000      16.87326000       0.01748500      -0.01469200      -0.08257700
Pt       5.61200000       1.62004000      14.58218000       0.04661000      -0.07013500      -0.56685500
Pt       1.40300000       2.43007000      16.87326000      -0.12713200       0.13517600      -0.02892400
Pt       4.20900000       2.43007000      16.87326000      -0.28543300       0.34732800       0.57575900
Pt       7.01499000       2.43007000      16.87326000       0.41877800      -0.06931100       0.62397900
Pt       2.80600000       4.86013000      16.87326000      -0.20988600       0.08830900      -0.06628400
Pt       5.61200000       4.86013000      16.87326000      -0.10498800       0.24187400       0.66967000
Pt       2.80600000       0.00000000      16.87326000       0.21563700      -0.07535300       1.26416300
Pt       5.61200000       0.00000000      16.87326000      -0.23102800      -0.45777200       1.23560200
Pt       0.00000000       0.00000000      10.00000000      -0.03863300      -0.04360400      -0.04419500
Pt       9.82099000       5.67015000      12.29109000       0.04741100      -0.01434000       0.18730200
Pt       2.80600000       0.00000000      10.00000000       0.04097700      -0.01931900      -0.06803100
Pt       5.61200000       0.00000000      10.00000000      -0.00232800      -0.00715600      -0.08046500
Pt       1.40300000       2.43007000      10.00000000       0.00482900       0.05069800      -0.07615700
Pt       4.20900000       2.43007000      10.00000000      -0.00796500      -0.00202300      -0.05195000
Pt       7.01499000       2.43007000      10.00000000       0.00930200       0.00289200      -0.06114800
Pt       2.80600000       4.86013000      10.00000000      -0.02698000      -0.00574200      -0.11204000
Pt       5.61200000       4.86013000      10.00000000       0.03403500       0.00197700      -0.10572500
Pt       8.41799000       1.62004000      14.58218000      -0.06541800       0.07181300      -0.19099900
Pt       8.41799000       4.86013000      10.00000000       0.00857700      -0.00891100      -0.09341900
Pt       4.20900000       0.81002000      12.29109000      -0.04164400       0.01970600       0.21907600
Pt       7.01499000       0.81002000      12.29109000       0.05162000      -0.01636400       0.19784900
Pt       2.80600000       3.24009000      12.29109000      -0.00145500       0.01394500       0.11935700
Pt       5.61200000       3.24009000      12.29109000      -0.01196100       0.05789100       0.17649500
Pt       8.41799000       3.24009000      12.29109000       0.01703900      -0.03766400       0.18241200
Pt       4.20900000       5.67015000      12.29109000       0.01941400      -0.04557400       0.04559700
Pt       7.01499000       5.67015000      12.29109000      -0.07123300       0.02454600       0.17884400
Pt       1.40300000       0.81002000      12.29109000      -0.01147800      -0.01721600      -0.02625400
Pt       2.80600000       1.62004000      14.58218000       0.02257700       0.07128300      -0.26413200
40
Lattice="8.417993093 0.0 0.0 4.208996546 7.290195867 0.0 0.0 0.0 29.886262579" Properties=species:S:1:pos:R:3:forces:R:3 energy=-240.9611371 pbc="T T T"
C        5.61200000       2.43007000      18.49926000      -0.00000000       0.06901600      -3.20491400
C        1.40300000       2.43007000      18.72826000      -0.00000000       0.01050200       0.22729200
O        5.61200000       2.43007000      19.65726000      -0.00000000      -0.02066300       1.64248200
O        1.40300000       2.43007000      19.88626000      -0.00000000      -0.00406200      -0.08962600
Pt       8.41799000       4.86013000      16.87326000      -0.10698500       0.49825800      -0.12576900
Pt       9.82099000       4.05011000      14.58218000      -0.00000000      -0.09370100      -0.13001300
Pt       4.20900000       4.05011000      14.58218000      -0.01234700       0.05013900      -0.26611100
Pt       7.01499000       4.05011000      14.58218000       0.01234700       0.05013900      -0.26611100
Pt      11.22399000       6.48017000      14.58218000      -0.02028600      -0.02310900      -0.24623400
Pt       5.61200000       6.48017000      14.58218000      -0.00000000      -0.07353700      -0.22486000
Pt       8.41799000       6.48017000      14.58218000       0.02028600      -0.02310900      -0.24623400
Pt       0.00000000       0.00000000      16.87326000      -0.10392000      -0.48306100      -0.10887800
Pt       5.61200000       1.62004000      14.58218000      -0.00000000      -0.12368400      -0.57385000
Pt       1.40300000       2.43007000      16.87326000      -0.00000000       0.00253400       0.93639700
Pt       4.20900000       2.43007000      16.87326000       0.68827600      -0.10131600       1.21966500
Pt       7.01499000       2.43007000      16.87326000      -0.68827600      -0.10131600       1.21966500
Pt       2.80600000       4.86013000      16.87326000       0.10698500       0.49825800      -0.12576900
Pt       5.61200000       4.86013000      16.87326000       0.00000000       0.54619400      -0.03545400
Pt       2.80600000       0.00000000      16.87326000       0.10392000      -0.48306100      -0.10887800
Pt       5.61200000       0.00000000      16.87326000      -0.00000000      -0.53945100       0.00805700
Pt       0.00000000       0.00000000      10.00000000      -0.06242300       0.01389400      -0.09884100
Pt       9.82099000       5.67015000      12.29109000      -0.00000000       0.14046100       0.11612900
Pt       2.80600000       0.00000000      10.00000000       0.06242300       0.01389400      -0.09884100
Pt       5.61200000       0.00000000      10.00000000      -0.00000000       0.02268400      -0.25766200
Pt       1.40300000       2.43007000      10.00000000      -0.00000000      -0.00054400      -0.04645600
Pt       4.20900000       2.43007000      10.00000000      -0.00276500      -0.01319900      -0.05470600
Pt       7.01499000       2.43007000      10.00000000       0.00276500      -0.01319900      -0.05470600
Pt       2.80600000       4.86013000      10.00000000      -0.00819500       0.00747000      -0.06574600
Pt       5.61200000       4.86013000      10.00000000      -0.00000000      -0.00269100      -0.06751700
Pt       8.41799000       1.62004000      14.58218000      -0.01332500       0.17244000      -0.03054800
Pt       8.41799000       4.86013000      10.00000000       0.00819500       0.00747000      -0.06574600
Pt       4.20900000       0.81002000      12.29109000       0.06400900      -0.07284300       0.08978600
Pt       7.01499000       0.81002000      12.29109000      -0.06400900      -0.07284300       0.08978600
Pt       2.80600000       3.24009000      12.29109000      -0.00402800      -0.04684200       0.25387600
Pt       5.61200000       3.24009000      12.29109000      -0.00000000       0.00260000       0.23192100
Pt       8.41799000       3.24009000      12.29109000       0.00402800      -0.04684200       0.25387600
Pt       4.20900000       5.67015000      12.29109000       0.01595600       0.07375300       0.13414000
Pt       7.01499000       5.67015000      12.29109000      -0.01595600       0.07375300       0.13414000
Pt       1.40300000       0.81002000      12.29109000       0.00000000      -0.08682700       0.06680200
Pt       2.80600000       1.62004000      14.58218000       0.01332500       0.17244000      -0.03054800
40
Lattice="8.417993093 0.0 0.0 4.208996546 7.290195867 0.0 0.0 0.0 29.657262579" Properties=species:S:1:pos:R:3:forces:R:3 energy=-239.40594486 pbc="T T T"
C        7.01499000       0.00000000      18.49926000       2.07884300       2.21688900      -2.53160900
C        9.82099000       5.67015000      18.27026000      -1.31388300      -1.89847400      -3.40903000
O        7.01499000       0.00000000      19.65726000       1.16351300       1.37417500       1.14596900
O        9.82099000       5.67015000      19.42826000      -1.65262500      -1.86503100       2.98427600
Pt       8.41799000       4.86013000      16.87326000      -0.24872900      -0.20969700       0.78489300
Pt       9.82099000       4.05011000      14.58218000       0.01694100      -0.13124600      -0.45968800
Pt       4.20900000       4.05011000      14.58218000      -0.07992900       0.01881300      -0.18391800
Pt       7.01499000       4.05011000      14.58218000       0.04318700       0.00467000      -0.20050800
Pt      11.22399000       6.48017000      14.58218000       0.10104700      -0.05965400      -0.82336000
Pt       5.61200000       6.48017000      14.58218000      -0.10411500       0.13957400      -0.03668700
Pt       8.41799000       6.48017000      14.58218000       0.01909200       0.17818400      -0.29242300
Pt       0.00000000       0.00000000      16.87326000      -0.12332200      -0.01813300       1.41024300
Pt       5.61200000       1.62004000      14.58218000      -0.05102500      -0.09518800      -0.19948500
Pt       1.40300000       2.43007000      16.87326000       0.11726400      -0.24685800      -0.08552400
Pt       4.20900000       2.43007000      16.87326000      -0.12551900       0.14196500      -0.01011700
Pt       7.01499000       2.43007000      16.87326000       0.01537400       0.57262400      -0.04275700
Pt       2.80600000       4.86013000      16.87326000       0.21712900      -0.68055500       0.57789100
Pt       5.61200000       4.86013000      16.87326000       0.12835300      -0.12631800      -0.06028100
Pt       2.80600000       0.00000000      16.87326000      -0.32640100       0.20979200      -0.08764000
Pt       5.61200000       0.00000000      16.87326000       0.04160100       0.51461800       1.40863700
Pt       0.00000000       0.00000000      10.00000000       0.00553000       0.00740200      -0.07668700
Pt       9.82099000       5.67015000      12.29109000      -0.02390500      -0.00360100       0.21219900
Pt       2.80600000       0.00000000      10.00000000      -0.01518800      -0.01089400      -0.04416400
Pt       5.61200000       0.00000000      10.00000000      -0.00081200       0.00169600      -0.05619500
Pt       1.40300000       2.43007000      10.00000000       0.01068700      -0.00492300      -0.08662800
Pt       4.20900000       2.43007000      10.00000000      -0.03354000      -0.00860700      -0.06767700
Pt       7.01499000       2.43007000      10.00000000       0.04109500      -0.01715300      -0.05705000
Pt       2.80600000       4.86013000      10.00000000      -0.00796700      -0.01199000      -0.06677300
Pt       5.61200000       4.86013000      10.00000000      -0.01303700       0.02919400      -0.12619100
Pt       8.41799000       1.62004000      14.58218000       0.07354500       0.02401900      -0.30730800
Pt       8.41799000       4.86013000      10.00000000       0.03698200      -0.00499000      -0.10028600
Pt       4.20900000       0.81002000      12.29109000       0.02788000       0.01812500       0.18609000
Pt       7.01499000       0.81002000      12.29109000      -0.01905200       0.02333100       0.20063600
Pt       2.80600000       3.24009000      12.29109000       0.04676200       0.00786000       0.18057100
Pt       5.61200000       3.24009000      12.29109000      -0.00098200       0.03659100      -0.06479200
Pt       8.41799000       3.24009000      12.29109000      -0.06377600       0.06057400       0.10617400
Pt       4.20900000       5.67015000      12.29109000       0.07640600      -0.05903900       0.16794400
Pt       7.01499000       5.67015000      12.29109000      -0.02499500      -0.12315400       0.06580100
Pt       1.40300000       0.81002000      12.29109000      -0.00215700      -0.02071100       0.23570500
Pt       2.80600000       1.62004000      14.58218000      -0.03027400       0.01611900      -0.19025200
40
Lattice="8.417993093 0.0 0.0 4.208996546 7.290195867 0.0 0.0 0.0 29.657262579" Properties=species:S:1:pos:R:3:forces:R:3 energy=-241.05183988 pbc="T T T"
C        4.20900000       0.00000000      18.49926000       0.00000000       0.10272100      -2.91435900
C        8.41799000       3.24009000      18.27026000      -0.00000000      -0.00945800      -3.36115800
O        4.20900000       0.00000000      19.65726000      -0.00000000      -0.01936900       1.44352800
O        8.41799000       3.24009000      19.42826000      -0.00000000       0.00362900       3.08483400
Pt       8.41799000       4.86013000      16.87326000      -0.00000000      -0.15953700       0.52935100
Pt       9.82099000       4.05011000      14.58218000       0.07412600       0.03791600      -0.46226200
Pt       4.20900000       4.05011000      14.58218000      -0.00000000       0.02336100      -0.24247700
Pt       7.01499000       4.05011000      14.58218000      -0.07412600       0.03791600      -0.46226200
Pt      11.22399000       6.48017000      14.58218000      -0.05946300       0.08116500      -0.02557000
Pt       5.61200000       6.48017000      14.58218000       0.05946300       0.08116500      -0.02557000
Pt       8.41799000       6.48017000      14.58218000      -0.00000000      -0.17341500      -0.51782100
Pt       0.00000000       0.00000000      16.87326000      -0.00000000      -0.38930300      -0.11315700
Pt       5.61200000       1.62004000      14.58218000       0.10134600       0.07252700      -0.29382000
Pt       1.40300000       2.43007000      16.87326000       0.18344400      -0.05537000       0.62859900
Pt       4.20900000       2.43007000      16.87326000       0.00000000       0.53516100      -0.07896200
Pt       7.01499000       2.43007000      16.87326000      -0.18344400      -0.05537000       0.62859900
Pt       2.80600000       4.86013000      16.87326000       0.44146800       0.10138300      -0.07230200
Pt       5.61200000       4.86013000      16.87326000      -0.44146800       0.10138300      -0.07230200
Pt       2.80600000       0.00000000      16.87326000       0.20506700      -0.12179700       1.24872900
Pt       5.61200000       0.00000000      16.87326000      -0.20506700      -0.12179700       1.24872900
Pt       0.00000000       0.00000000      10.00000000      -0.00000000      -0.01986700      -0.04731700
Pt       9.82099000       5.67015000      12.29109000       0.01041100       0.02639300       0.17492200
Pt       2.80600000       0.00000000      10.00000000      -0.02665800      -0.02829200      -0.06390600
Pt       5.61200000       0.00000000      10.00000000       0.02665800      -0.02829200      -0.06390600
Pt       1.40300000       2.43007000      10.00000000      -0.00598200       0.00088500      -0.06194600
Pt       4.20900000       2.43007000      10.00000000      -0.00000000       0.04090500      -0.05902000
Pt       7.01499000       2.43007000      10.00000000       0.00598200       0.00088500      -0.06194600
Pt       2.80600000       4.86013000      10.00000000      -0.02108600      -0.00202600      -0.11698200
Pt       5.61200000       4.86013000      10.00000000       0.02108600      -0.00202600      -0.11698200
Pt       8.41799000       1.62004000      14.58218000      -0.00000000      -0.07953900      -0.46019000
Pt       8.41799000       4.86013000      10.00000000      -0.00000000      -0.01180800      -0.07483300
Pt       4.20900000       0.81002000      12.29109000      -0.00000000      -0.00210200      -0.03871400
Pt       7.01499000       0.81002000      12.29109000      -0.05589400      -0.01266700       0.20833800
Pt       2.80600000       3.24009000      12.29109000       0.03451800       0.02209600       0.11690800
Pt       5.61200000       3.24009000      12.29109000      -0.03451800       0.02209600       0.11690800