40
Lattice="5.611995395 0.0 0.0 5.611995395 9.720261156 0.0 0.0 0.0 29.886262579" Properties=species:S:1:pos:R:3:forces:R:3 energy=-245.67739289 pbc="T T T"
C        2.80600000       3.24009000      18.27026000       0.03395500      -4.12981000      -3.37638600
C        7.01499000       4.86013000      18.49926000      -2.08252600       2.13471600      -2.50706600
C        4.20900000       7.29020000      18.72826000       0.02625500       1.26313500       0.42553300
C        4.20900000       4.86013000      18.49926000       2.08094800       0.87253500      -2.42442400
O        7.01499000       4.86013000      19.65726000      -1.05196200       1.36968700       1.04644000
O        2.80600000       3.24009000      19.42826000      -0.01454900      -3.53439700       3.01548500
O        4.20900000       7.29020000      19.88626000      -0.01186200       0.69404400      -0.16385600
O        4.20900000       4.86013000      19.65726000       1.04731900       0.60084900       0.87338200
Pt       7.01499000       7.29020000      16.87326000       0.00638700       0.77257400      -0.33247700
Pt       4.20900000       7.29020000      16.87326000       0.01944400       1.00674600       0.75534100
Pt       8.41799000       6.48017000      14.58218000       0.10935900      -0.08696900      -0.15074200
Pt       2.80600000       4.86013000      16.87326000      -0.13842500       0.46665400       1.66692800
Pt       4.20900000       2.43007000      16.87326000       0.00422400      -0.74388000       0.55336500
Pt       1.40300000       2.43007000      16.87326000      -0.02640100      -0.78607200       0.57549700
Pt       2.80600000       0.00000000      16.87326000      -0.20565900       0.00490400      -0.17559300
Pt       0.00000000       0.00000000      16.87326000       0.22621600       0.31077000      -0.17903500
Pt       7.01499000       8.91024000      14.58218000      -0.00109300       0.01931700      -0.21666000
Pt       9.82099000       8.91024000      14.58218000      -0.00835600      -0.17971100      -0.22939900
Pt       5.61200000       6.48017000      14.58218000      -0.10485900       0.07824600      -0.27563900
Pt       5.61200000       4.86013000      16.87326000       0.08942800      -0.41452900       2.51078500
Pt       0.00000000       0.00000000      10.00000000       0.00240900       0.05027100      -0.09352900
Pt       2.80600000       1.62004000      14.58218000      -0.00270500      -0.13779700      -0.49156200
Pt       2.80600000       0.00000000      10.00000000      -0.00186400       0.01973300      -0.19071900
Pt       1.40300000       2.43007000      10.00000000       0.00336900      -0.03690000      -0.19615600
Pt       4.20900000       2.43007000      10.00000000      -0.00341900       0.00745500      -0.17716900
Pt       2.80600000       4.86013000      10.00000000       0.04072800      -0.04030700      -0.11677100
Pt       5.61200000       4.86013000      10.00000000      -0.03876900      -0.03063400      -0.11137600
Pt       4.20900000       7.29020000      10.00000000      -0.02048300       0.01933000      -0.07316200
Pt       7.01499000       7.29020000      10.00000000       0.01861800       0.02808000      -0.01411900
Pt       7.01499000       4.05011000      14.58218000      -0.06794100       0.28053300      -0.49548000
Pt       1.40300000       0.81002000      12.29109000       0.04470700      -0.05613400       0.05413100
Pt       2.80600000       3.24009000      12.29109000       0.01579600      -0.07556000       0.12167300
Pt       5.61200000       3.24009000      12.29109000      -0.01221400      -0.14536200       0.13484500
Pt       4.20900000       5.67015000      12.29109000       0.01522700       0.00121800       0.25795900
Pt       7.01499000       5.67015000      12.29109000      -0.01904800      -0.05319400       0.08090300
Pt       5.61200000       8.10022000      12.29109000      -0.02183400       0.04761500       0.15160100
Pt       8.41799000       8.10022000      12.29109000       0.02039400       0.09885900       0.18989100
Pt       5.61200000       1.62004000      14.58218000       0.00042500       0.08266500      -0.02076600
Pt       4.20900000       0.81002000      12.29109000      -0.04607300       0.03273400      -0.03273100
Pt       4.20900000       4.05011000      14.58218000       0.07483300       0.18858300      -0.36894200
40
Lattice="5.611995395 0.0 0.0 5.611995395 9.720261156 0.0 0.0 0.0 29.657262579" Properties=species:S:1:pos:R:3:forces:R:3 energy=-249.49977033 pbc="T T T"
C        2.80600000       2.43007000      18.49926000       0.29510800       0.15051600      -2.44259400
C        5.61200000       3.24009000      18.27026000      -0.28461000      -0.14253700      -2.87867600
C        7.01499000       5.67015000      18.27026000       0.34879800       0.55143200      -3.12994400
C        1.40300000       0.00000000      18.49926000      -0.25825100      -0.51691400      -2.81418800
O        5.61200000       3.24009000      19.42826000      -0.04375100      -0.04377200       2.74744400
O        2.80600000       2.43007000      19.65726000       0.03866500       0.09168600       1.03110900
O        7.01499000       5.67015000      19.42826000       0.07933700       0.09619100       2.94505400
O        1.40300000       0.00000000      19.65726000      -0.05323200      -0.07275600       1.34277100
Pt       7.01499000       7.29020000      16.87326000       0.00327900      -0.18364700       0.50177200
Pt       4.20900000       7.29020000      16.87326000      -0.00002900       0.25522900      -0.31470000
Pt       8.41799000       6.48017000      14.58218000       0.04852600       0.02058000      -0.44011700
Pt       2.80600000       4.86013000      16.87326000       0.13496200       0.71983700       0.36058800
Pt       4.20900000       2.43007000      16.87326000      -0.59838400      -0.09045700       1.54702800
Pt       1.40300000       2.43007000      16.87326000       0.55179900      -0.04422200       1.31354700
Pt       2.80600000       0.00000000      16.87326000      -0.31633500      -0.68914700       1.06477400
Pt       0.00000000       0.00000000      16.87326000       0.37737400      -0.66291600       1.13595900
Pt       7.01499000       8.91024000      14.58218000       0.02623200      -0.26654800      -0.55709500
Pt       9.82099000       8.91024000      14.58218000      -0.00608700       0.19464500       0.14169200
Pt       5.61200000       6.48017000      14.58218000      -0.03860100      -0.07571300      -0.31917000
Pt       5.61200000       4.86013000      16.87326000      -0.31432100       0.31926100       0.79758900
Pt       0.00000000       0.00000000      10.00000000       0.03991000       0.00920500      -0.15793000
Pt       2.80600000       1.62004000      14.58218000       0.00859700       0.07661100      -0.50052700
Pt       2.80600000       0.00000000      10.00000000      -0.02864500      -0.02918200      -0.14795500
Pt       1.40300000       2.43007000      10.00000000       0.00282400      -0.02998400      -0.15328400
Pt       4.20900000       2.43007000      10.00000000       0.00395300       0.00375100      -0.04044200
Pt       2.80600000       4.86013000      10.00000000      -0.04102400       0.00983900      -0.06310000
Pt       5.61200000       4.86013000      10.00000000       0.04638100       0.02201900      -0.06785500
Pt       4.20900000       7.29020000      10.00000000      -0.00690500       0.04126200      -0.02816200
Pt       7.01499000       7.29020000      10.00000000      -0.00315200      -0.02527400      -0.16330700
Pt       7.01499000       4.05011000      14.58218000       0.04508000      -0.04098700      -0.84353000
Pt       1.40300000       0.81002000      12.29109000      -0.00790200       0.03942900       0.01216900
Pt       2.80600000       3.24009000      12.29109000      -0.02828000      -0.04914100       0.08372600
Pt       5.61200000       3.24009000      12.29109000       0.04213500      -0.05040500       0.12476600
Pt       4.20900000       5.67015000      12.29109000       0.02205800      -0.03172400       0.06637400
Pt       7.01499000       5.67015000      12.29109000      -0.01557600       0.07948900       0.19930700
Pt       5.61200000       8.10022000      12.29109000       0.04483500       0.08147400       0.02568500
Pt       8.41799000       8.10022000      12.29109000      -0.06990300       0.00175800       0.07206500
Pt       5.61200000       1.62004000      14.58218000      -0.02278300       0.19119900      -0.19368800
Pt       4.20900000       0.81002000      12.29109000       0.01638100      -0.13846000       0.09692000
Pt       4.20900000       4.05011000      14.58218000      -0.03846700       0.22837300      -0.35407400
40
Lattice="5.611995395 0.0 0.0 5.611995395 9.720261156 0.0 0.0 0.0 29.886262579" Properties=species:S:1:pos:R:3:forces:R:3 energy=-249.41907682 pbc="T T T"
C        7.01499000       5.67015000      18.27026000       0.00000000       0.01795800      -3.38356600
C        4.20900000       2.43007000      18.72826000       0.00000000       1.26374300       0.69635600
C        4.20900000       0.00000000      18.49926000       0.00000000      -1.46739700      -2.67753000
C        1.40300000       0.81002000      18.27026000       0.00000000       0.29579000      -3.41774200
O        4.20900000       2.43007000      19.88626000       0.00000000       0.70823800      -0.36098800
O        7.01499000       5.67015000      19.42826000      -0.00000000       0.00156500       3.15042400
O        4.20900000       0.00000000      19.65726000       0.00000000      -0.77365000       1.12994200
O        1.40300000       0.81002000      19.42826000       0.00000000       0.08463300       3.13408200
Pt       7.01499000       7.29020000      16.87326000       0.00000000      -0.27970600       0.44554100
Pt       4.20900000       7.29020000      16.87326000       0.00000000      -0.17692300      -0.31333600
Pt       8.41799000       6.48017000      14.58218000       0.10559200       0.03240100      -0.44691500
Pt       2.80600000       4.86013000      16.87326000       0.05896200       0.22833600       0.35481600
Pt       4.20900000       2.43007000      16.87326000       0.00000000       0.99671400       0.58504400
Pt       1.40300000       2.43007000      16.87326000       0.00000000       0.01326900       0.28288300
Pt       2.80600000       0.00000000      16.87326000       0.42954900      -0.66058800       1.46677700
Pt       0.00000000       0.00000000      16.87326000      -0.42954900      -0.66058800       1.46677700
Pt       7.01499000       8.91024000      14.58218000       0.00000000       0.03546700      -0.11922900
Pt       9.82099000       8.91024000      14.58218000      -0.00000000       0.00600000      -0.27038300
Pt       5.61200000       6.48017000      14.58218000      -0.10559200       0.03240100      -0.44691500
Pt       5.61200000       4.86013000      16.87326000      -0.05896200       0.22833600       0.35481600
Pt       0.00000000       0.00000000      10.00000000      -0.00750800      -0.03276600      -0.12636700
Pt       2.80600000       1.62004000      14.58218000       0.12718500       0.15173100      -0.51051400
Pt       2.80600000       0.00000000      10.00000000       0.00750800      -0.03276600      -0.12636700
Pt       1.40300000       2.43007000      10.00000000      -0.00000000      -0.01429400      -0.13994500
Pt       4.20900000       2.43007000      10.00000000       0.00000000       0.00342800      -0.06217300
Pt       2.80600000       4.86013000      10.00000000      -0.00569500       0.01663600      -0.07211100
Pt       5.61200000       4.86013000      10.00000000       0.00569500       0.01663600      -0.07211100
Pt       4.20900000       7.29020000      10.00000000      -0.00000000       0.04018800      -0.16064500
Pt       7.01499000       7.29020000      10.00000000       0.00000000       0.02616500      -0.19115000
Pt       7.01499000       4.05011000      14.58218000       0.00000000      -0.20109000      -0.34241300
Pt       1.40300000       0.81002000      12.29109000       0.00000000       0.03433900       0.05480800
Pt       2.80600000       3.24009000      12.29109000      -0.07249100       0.00581500       0.08647700
Pt       5.61200000       3.24009000      12.29109000       0.07249100       0.00581500       0.08647700
Pt       4.20900000       5.67015000      12.29109000       0.00000000       0.02721300       0.03578700
Pt       7.01499000       5.67015000      12.29109000      -0.00000000       0.09725300       0.15748000
Pt       5.61200000       8.10022000      12.29109000       0.02713600      -0.07619300       0.01590100
Pt       8.41799000       8.10022000      12.29109000      -0.02713600      -0.07619300       0.01590100
Pt       5.61200000       1.62004000      14.58218000      -0.12718500       0.15173100      -0.51051400
Pt       4.20900000       0.81002000      12.29109000       0.00000000      -0.02411800       0.25509600
Pt       4.20900000       4.05011000      14.58218000      -0.00000000      -0.04553300      -0.02446900
40
Lattice="5.611995395 0.0 0.0 5.611995395 9.720261156 0.0 0.0 0.0 29.657262579" Properties=species:S:1:pos:R:3:forces:R:3 energy=-248.14757462 pbc="T T T"
C        8.41799000       6.48017000      18.27026000      -1.29513400       1.92734700      -3.21552700
C        1.40300000       0.00000000      18.49926000      -0.31266000      -0.31644600      -2.80105700
C        4.20900000       4.86013000      18.49926000       2.47495300      -1.56866000      -2.34558900
C        2.80600000       2.43007000      18.49926000       0.01789700      -0.00456600      -2.75323900
O        1.40300000       0.00000000      19.65726000      -0.03191500      -0.11294900       1.33437800
O        8.41799000       6.48017000      19.42826000      -1.65681300       1.86005700       2.90007900
O        4.20900000       4.86013000      19.65726000       1.17907300      -1.35092700       1.02207300
O        2.80600000       2.43007000      19.65726000      -0.01024400      -0.01143700       1.29045800
Pt       7.01499000       7.29020000      16.87326000       0.03724900      -0.28623500       0.48567500
Pt       4.20900000       7.29020000      16.87326000       0.03596900       0.41148200       0.44194000
Pt       8.41799000       6.48017000      14.58218000      -0.03658900      -0.00176700      -0.77221500
Pt       2.80600000       4.86013000      16.87326000       0.09158500      -0.04628300       1.11490200
Pt       4.20900000       2.43007000      16.87326000      -0.36674900      -0.50244300       1.08496700
Pt       1.40300000       2.43007000      16.87326000       0.34044500       0.21250800       1.12092100
Pt       2.80600000       0.00000000      16.87326000      -0.31409400      -0.32675300       1.01249500
Pt       0.00000000       0.00000000      16.87326000       0.36397800      -0.16634300       1.18298000
Pt       7.01499000       8.91024000      14.58218000       0.00272500      -0.12801200      -0.62419300
Pt       9.82099000       8.91024000      14.58218000      -0.02101800       0.19563500       0.04565800
Pt       5.61200000       6.48017000      14.58218000       0.05460700       0.11338000      -0.27631200
Pt       5.61200000       4.86013000      16.87326000      -0.65189100      -0.17804500       1.20155400
Pt       0.00000000       0.00000000      10.00000000       0.00348800       0.01674300      -0.06113100
Pt       2.80600000       1.62004000      14.58218000       0.05905000      -0.10673400      -0.72482000
Pt       2.80600000       0.00000000      10.00000000       0.00543200      -0.03289500      -0.15961700
Pt       1.40300000       2.43007000      10.00000000       0.03774600       0.00994300      -0.08293200
Pt       4.20900000       2.43007000      10.00000000      -0.02218200      -0.01962400      -0.16510700
Pt       2.80600000       4.86013000      10.00000000      -0.00847500      -0.02223200      -0.09718700
Pt       5.61200000       4.86013000      10.00000000      -0.00246200       0.02208000      -0.05478100
Pt       4.20900000       7.29020000      10.00000000      -0.03338100       0.01239600      -0.06364700
Pt       7.01499000       7.29020000      10.00000000       0.03190100      -0.01721500      -0.14903600
Pt       7.01499000       4.05011000      14.58218000       0.05362100       0.26965700       0.04302000
Pt       1.40300000       0.81002000      12.29109000       0.02448900       0.01780700       0.07767700
Pt       2.80600000       3.24009000      12.29109000       0.08777900       0.01058400       0.10654300
Pt       5.61200000       3.24009000      12.29109000      -0.01383100      -0.08199300       0.08089700
Pt       4.20900000       5.67015000      12.29109000       0.00508700      -0.00263500       0.11325900
Pt       7.01499000       5.67015000      12.29109000      -0.00230300      -0.01052700       0.13178000
Pt       5.61200000       8.10022000      12.29109000       0.04412300      -0.03976900       0.08953700
Pt       8.41799000       8.10022000      12.29109000      -0.05511900       0.06374800       0.06424400
Pt       5.61200000       1.62004000      14.58218000      -0.06368200       0.27731800       0.01794200
Pt       4.20900000       0.81002000      12.29109000      -0.02690000      -0.00269200       0.09929400
Pt       4.20900000       4.05011000      14.58218000      -0.02575300      -0.08350400      -0.71588300
40
Lattice="5.611995395 0.0 0.0 5.611995395 9.720261156 0.0 0.0 0.0 29.886262579" Properties=species:S:1:pos:R:3:forces:R:3 energy=-248.55888321 pbc="T T T"
C        1.40300000       0.00000000      18.49926000       0.00000000      -1.21490900      -3.24882800
C        4.20900000       2.43007000      18.72826000      -0.00000000      -0.00086900       0.09094500
C        1.40300000       2.43007000      18.72826000       0.00000000       0.04310100       0.65587500
C        7.01499000       4.86013000      18.49926000      -0.00000000       1.35266500      -3.28198800
O        4.20900000       2.43007000      19.88626000       0.00000000       0.00050800      -0.01079300
O        1.40300000       0.00000000      19.65726000       0.00000000      -0.81356300       1.63734400
O        1.40300000       2.43007000      19.88626000      -0.00000000      -0.02243800      -0.27532200
O        7.01499000       4.86013000      19.65726000       0.00000000       0.78134300       1.65355700
Pt       7.01499000       7.29020000      16.87326000      -0.00000000       0.02490300      -0.14088400
Pt       4.20900000       7.29020000      16.87326000       0.00000000       0.07868800      -0.18058800
Pt       8.41799000       6.48017000      14.58218000       0.01015500       0.01194200      -0.36474900
Pt       2.80600000       4.86013000      16.87326000      -0.35336500       0.54332200       1.11572200
Pt       4.20900000       2.43007000      16.87326000      -0.00000000       0.07094700       0.71853000
Pt       1.40300000       2.43007000      16.87326000       0.00000000       0.01810900       0.23303500
Pt       2.80600000       0.00000000      16.87326000      -0.35179900      -0.78747700       1.11508600
Pt       0.00000000       0.00000000      16.87326000       0.35179900      -0.78747700       1.11508600
Pt       7.01499000       8.91024000      14.58218000       0.00000000      -0.20226000      -0.57814800
Pt       9.82099000       8.91024000      14.58218000       0.00000000       0.22740600       0.16128600
Pt       5.61200000       6.48017000      14.58218000      -0.01015500       0.01194200      -0.36474900
Pt       5.61200000       4.86013000      16.87326000       0.35336500       0.54332200       1.11572200
Pt       0.00000000       0.00000000      10.00000000       0.02784700      -0.04037000      -0.18370700
Pt       2.80600000       1.62004000      14.58218000       0.00079800       0.16547700      -0.34346200
Pt       2.80600000       0.00000000      10.00000000      -0.02784700      -0.04037000      -0.18370700
Pt       1.40300000       2.43007000      10.00000000       0.00000000      -0.07769000      -0.18302700
Pt       4.20900000       2.43007000      10.00000000       0.00000000      -0.02360700      -0.04339100
Pt       2.80600000       4.86013000      10.00000000      -0.03829300       0.03180100      -0.03214700
Pt       5.61200000       4.86013000      10.00000000       0.03829300       0.03180100      -0.03214700
Pt       4.20900000       7.29020000      10.00000000       0.00000000       0.08715500      -0.10970600
Pt       7.01499000       7.29020000      10.00000000      -0.00000000       0.00064800      -0.22641700
Pt       7.01499000       4.05011000      14.58218000       0.00000000      -0.29277000      -0.52532200
Pt       1.40300000       0.81002000      12.29109000       0.00000000      -0.01729500       0.10568000
Pt       2.80600000       3.24009000      12.29109000      -0.03572600      -0.03108500       0.12592100
Pt       5.61200000       3.24009000      12.29109000       0.03572600      -0.03108500       0.12592100
Pt       4.20900000       5.67015000      12.29109000       0.00000000       0.00938900       0.14248700
Pt       7.01499000       5.67015000      12.29109000       0.00000000       0.11701100       0.18814200
Pt       5.61200000       8.10022000      12.29109000       0.04614400       0.00869600      -0.00207500
Pt       8.41799000       8.10022000      12.29109000      -0.04614400       0.00869600      -0.00207500
Pt       5.61200000       1.62004000      14.58218000      -0.00079800       0.16547700      -0.34346200
Pt       4.20900000       0.81002000      12.29109000       0.00000000      -0.10342600       0.16917400
Pt       4.20900000       4.05011000      14.58218000       0.00000000       0.15234400       0.18718300
40
Lattice="5.611995395 0.0 0.0 5.611995395 9.720261156 0.0 0.0 0.0 29.886262579" Properties=species:S:1:pos:R:3:forces:R:3 energy=-249.46395965 pbc="T T T"
C        7.01499000       8.91024000      18.27026000       0.01198700      -0.96137000      -2.86638800
C        2.80600000       4.86013000      18.72826000       0.00665300       0.20974300       0.44109700
C        5.61200000       1.62004000      18.27026000      -0.17800500       0.44298800      -2.66727000
C        2.80600000       1.62004000      18.27026000       0.17323200       0.25078700      -2.75987500
O        2.80600000       4.86013000      19.88626000      -0.00136400      -0.02279600      -0.24650300
O        7.01499000       8.91024000      19.42826000       0.00434400      -0.23194700       2.81483200
O        5.61200000       1.62004000      19.42826000      -0.06971500       0.07906900       2.67057400
O        2.80600000       1.62004000      19.42826000       0.06613900       0.08395800       2.71661600
Pt       7.01499000       7.29020000      16.87326000      -0.22698900       0.14029600       0.46222100
Pt       4.20900000       7.29020000      16.87326000       0.21765400      -0.09852000      -0.40603000
Pt       8.41799000       6.48017000      14.58218000      -0.06255200      -0.12648600      -0.27484500
Pt       2.80600000       4.86013000      16.87326000       0.01017100       0.32280500       0.80034500
Pt       4.20900000       2.43007000      16.87326000       0.15063600      -0.10697000       0.66573000
Pt       1.40300000       2.43007000      16.87326000      -0.15205100       0.15286200       0.61932900
Pt       2.80600000       0.00000000      16.87326000       0.17191400      -0.29859200       0.66880500
Pt       0.00000000       0.00000000      16.87326000      -0.19406300      -0.31720200       0.70051600
Pt       7.01499000       8.91024000      14.58218000       0.01541200      -0.09484200      -0.70609800
Pt       9.82099000       8.91024000      14.58218000      -0.00844300       0.04202600      -0.13901700
Pt       5.61200000       6.48017000      14.58218000       0.03833600       0.01297800      -0.21162800
Pt       5.61200000       4.86013000      16.87326000      -0.00816600       0.43545100      -0.40993800
Pt       0.00000000       0.00000000      10.00000000       0.01057100      -0.01634700      -0.14431900
Pt       2.80600000       1.62004000      14.58218000       0.01039300       0.01351400      -0.63540900
Pt       2.80600000       0.00000000      10.00000000      -0.00959300       0.01868400      -0.13959800
Pt       1.40300000       2.43007000      10.00000000       0.03324100      -0.02551700      -0.11015400
Pt       4.20900000       2.43007000      10.00000000      -0.03827200      -0.02603400      -0.10660900
Pt       2.80600000       4.86013000      10.00000000      -0.04249600       0.01726400      -0.13629500
Pt       5.61200000       4.86013000      10.00000000       0.04411800       0.02258100      -0.05758500
Pt       4.20900000       7.29020000      10.00000000       0.01028800       0.04914800      -0.10455600
Pt       7.01499000       7.29020000      10.00000000      -0.00726100       0.00962900      -0.16649100
Pt       7.01499000       4.05011000      14.58218000       0.12766700       0.00821700      -0.15481100
Pt       1.40300000       0.81002000      12.29109000       0.00139900      -0.03388800       0.10364900
Pt       2.80600000       3.24009000      12.29109000       0.01616100       0.07039600       0.23981000
Pt       5.61200000       3.24009000      12.29109000      -0.01239000      -0.02348400       0.04416400
Pt       4.20900000       5.67015000      12.29109000      -0.00632600       0.01323100       0.01688800
Pt       7.01499000       5.67015000      12.29109000       0.02369300       0.12089700       0.17919000
Pt       5.61200000       8.10022000      12.29109000       0.01154000      -0.10541700       0.06613200
Pt       8.41799000       8.10022000      12.29109000      -0.00935500      -0.01231500      -0.02234100
Pt       5.61200000       1.62004000      14.58218000      -0.00048800       0.06538100      -0.75344400
Pt       4.20900000       0.81002000      12.29109000      -0.00624900      -0.09218300       0.17388900
Pt       4.20900000       4.05011000      14.58218000      -0.12177300       0.01200400      -0.16458100
40
Lattice="5.611995395 0.0 0.0 5.611995395 9.720261156 0.0 0.0 0.0 29.657262579" Properties=species:S:1:pos:R:3:forces:R:3 energy=-248.18815422 pbc="T T T"
C        2.80600000       3.24009000      18.27026000      -0.50675800       0.94887600      -2.99816300
C        4.20900000       0.81002000      18.27026000      -1.11014600      -2.71923300      -3.12970100
C        5.61200000       6.48017000      18.27026000      -0.01691500      -0.01885000      -3.20593600
C        5.61200000       2.43007000      18.49926000       2.18764900       1.82193900      -1.95339900
O        4.20900000       0.81002000      19.42826000      -1.59903100      -1.86868600       2.80134300
O        2.80600000       3.24009000      19.42826000       0.01912600       0.13397000       2.76425400
O        5.61200000       6.48017000      19.42826000      -0.00812800      -0.00218900       2.99210800
O        5.61200000       2.43007000      19.65726000       1.10815900       1.41641700       0.74856400
Pt       7.01499000       7.29020000      16.87326000       0.16310200       0.09275300       0.41653100
Pt       4.20900000       7.29020000      16.87326000      -0.11334100      -0.18282600       0.45006200
Pt       8.41799000       6.48017000      14.58218000       0.00984700      -0.04751000      -0.15628500
Pt       2.80600000       4.86013000      16.87326000       0.00981300       0.11541700       0.48095100
Pt       4.20900000       2.43007000      16.87326000       0.45839900       0.38811800       1.25217900
Pt       1.40300000       2.43007000      16.87326000      -0.71288700      -0.08984000       1.59881100
Pt       2.80600000       0.00000000      16.87326000      -0.02393600      -0.46626800       0.55998300
Pt       0.00000000       0.00000000      16.87326000       0.12090000      -0.36184800       0.36059600
Pt       7.01499000       8.91024000      14.58218000      -0.00178000       0.09718900      -0.10912300
Pt       9.82099000       8.91024000      14.58218000       0.00678400      -0.15015900      -0.52146100
Pt       5.61200000       6.48017000      14.58218000       0.00589500      -0.07497400      -0.63062000
Pt       5.61200000       4.86013000      16.87326000       0.02186400       0.69892200       0.24292700
Pt       0.00000000       0.00000000      10.00000000      -0.00357500      -0.04582500      -0.15334400
Pt       2.80600000       1.62004000      14.58218000      -0.08130800       0.26489500      -0.34647100
Pt       2.80600000       0.00000000      10.00000000       0.00775000       0.00299400      -0.14524800
Pt       1.40300000       2.43007000      10.00000000      -0.03576900       0.00237400      -0.08685200
Pt       4.20900000       2.43007000      10.00000000       0.03954400       0.00328000      -0.10202300
Pt       2.80600000       4.86013000      10.00000000       0.01137400       0.02549200      -0.02355800
Pt       5.61200000       4.86013000      10.00000000      -0.01898600      -0.02815900      -0.07308400
Pt       4.20900000       7.29020000      10.00000000       0.00752400       0.01804700      -0.17871100
Pt       7.01499000       7.29020000      10.00000000      -0.01352700       0.03632600      -0.08322700
Pt       7.01499000       4.05011000      14.58218000      -0.08047500       0.06151800      -0.49621800
Pt       1.40300000       0.81002000      12.29109000       0.03652400      -0.11047900       0.04097700
Pt       2.80600000       3.24009000      12.29109000      -0.01445400      -0.08110500       0.12917500
Pt       5.61200000       3.24009000      12.29109000       0.01081800       0.02025300       0.24466700
Pt       4.20900000       5.67015000      12.29109000      -0.00538100       0.08474300       0.09653600
Pt       7.01499000       5.67015000      12.29109000       0.00246700       0.02410000       0.07203600