70
Lattice="11.223990791 0.0 0.0 5.611995395 9.720261156 0.0 0.0 0.0 29.657262579" Properties=species:S:1:pos:R:3:forces:R:3 energy=-419.37767399 pbc="T T T"
C       11.22399000       8.10022000      18.27026000       0.60365900       0.09376200      -3.17646000
C        8.41799000       8.10022000      18.27026000      -0.60365900       0.09376200      -3.17646000
C        4.20900000       4.86013000      18.49926000       0.00000000       0.05880100      -3.02803900
O       11.22399000       8.10022000      19.42826000       0.12833100       0.01301700       2.94139700
O        4.20900000       4.86013000      19.65726000       0.00000000      -0.01681100       1.47652300
O        8.41799000       8.10022000      19.42826000      -0.12833100       0.01301700       2.94139700
Pt      12.62699000       4.05011000      14.58218000       0.14406900       0.08833800      -0.06052400
Pt       4.20900000       4.05011000      14.58218000       0.00000000      -0.07982400      -0.64860600
Pt       7.01499000       4.05011000      14.58218000      -0.14406900       0.08833800      -0.06052400
Pt       9.82099000       4.05011000      14.58218000       0.00000000      -0.04213000      -0.26511900
Pt      14.02999000       6.48017000      14.58218000      -0.11757100       0.06720900      -0.25857100
Pt       5.61200000       6.48017000      14.58218000       0.11757100       0.06720900      -0.25857100
Pt       8.41799000       6.48017000      14.58218000       0.12542100      -0.02067200      -0.34008900
Pt      11.22399000       6.48017000      14.58218000      -0.12542100      -0.02067200      -0.34008900
Pt      15.43299000       8.91024000      14.58218000       0.00000000      -0.01963100      -0.25247900
Pt       7.01499000       8.91024000      14.58218000      -0.09384000       0.05430500      -0.45562600
Pt       9.82099000       8.91024000      14.58218000      -0.00000000       0.10825400      -0.70112400
Pt      12.62699000       8.91024000      14.58218000       0.09384000       0.05430500      -0.45562600
Pt       0.00000000       0.00000000      16.87326000      -0.33071300       0.16970000      -0.00142900
Pt       2.80600000       0.00000000      16.87326000      -0.31082600       0.47336900       0.61537800
Pt       8.41799000       1.62004000      14.58218000       0.01152600       0.00748700      -0.26473600
Pt       1.40300000       2.43007000      16.87326000      -0.10044400      -0.06926700      -0.02346700
Pt       4.20900000       2.43007000      16.87326000       0.00000000      -0.49487700      -0.06867700
Pt       7.01499000       2.43007000      16.87326000       0.10044400      -0.06926700      -0.02346700
Pt       9.82099000       2.43007000      16.87326000       0.00000000       0.01332000       0.12727000
Pt       2.80600000       4.86013000      16.87326000       0.21143500      -0.11712600       1.32839800
Pt       5.61200000       4.86013000      16.87326000      -0.21143500      -0.11712600       1.32839800
Pt       8.41799000       4.86013000      16.87326000       0.04562500      -0.41311300      -0.09493100
Pt      11.22399000       4.86013000      16.87326000      -0.04562500      -0.41311300      -0.09493100
Pt       4.20900000       7.29020000      16.87326000       0.00000000       0.54388200      -0.10171800
Pt       7.01499000       7.29020000      16.87326000      -0.16623100      -0.04725700       0.63255000
Pt       9.82099000       7.29020000      16.87326000       0.00000000      -0.45912400       0.83824600
Pt      12.62699000       7.29020000      16.87326000       0.16623100      -0.04725700       0.63255000
Pt       5.61200000       0.00000000      16.87326000       0.31082600       0.47336900       0.61537800
Pt       8.41799000       0.00000000      16.87326000       0.33071300       0.16970000      -0.00142900
Pt       0.00000000       0.00000000      10.00000000      -0.02530800       0.04851700      -0.07070900
Pt      11.22399000       1.62004000      14.58218000      -0.01152600       0.00748700      -0.26473600
Pt       2.80600000       0.00000000      10.00000000      -0.00671400      -0.01071300      -0.05179700
Pt       5.61200000       0.00000000      10.00000000       0.00671400      -0.01071300      -0.05179700
Pt       8.41799000       0.00000000      10.00000000       0.02530800       0.04851700      -0.07070900
Pt       1.40300000       2.43007000      10.00000000      -0.00469300       0.00831600      -0.03592400
Pt       4.20900000       2.43007000      10.00000000       0.00000000       0.01567400      -0.04357400
Pt       7.01499000       2.43007000      10.00000000       0.00469300       0.00831600      -0.03592400
Pt       9.82099000       2.43007000      10.00000000       0.00000000      -0.06573000      -0.16738200
Pt       2.80600000       4.86013000      10.00000000       0.02819800       0.00975400      -0.18963200
Pt       5.61200000       4.86013000      10.00000000      -0.02819800       0.00975400      -0.18963200
Pt       8.41799000       4.86013000      10.00000000      -0.00663100      -0.01793600      -0.03320000
Pt      11.22399000       4.86013000      10.00000000       0.00663100      -0.01793600      -0.03320000
Pt       4.20900000       7.29020000      10.00000000       0.00000000      -0.04279200      -0.03323400
Pt       7.01499000       7.29020000      10.00000000       0.00704500      -0.00537500      -0.04267900
Pt       9.82099000       7.29020000      10.00000000       0.00000000       0.01237200      -0.05847200
Pt      12.62699000       7.29020000      10.00000000      -0.00704500      -0.00537500      -0.04267900
Pt       1.40300000       0.81002000      12.29109000       0.02230700       0.01591200       0.17961300
Pt       4.20900000       0.81002000      12.29109000       0.00000000       0.08346400       0.16326700
Pt      14.02999000       8.10022000      12.29109000       0.00704600       0.00428000       0.09981300
Pt      11.22399000       8.10022000      12.29109000       0.01131000      -0.02972800       0.23030300
Pt       8.41799000       8.10022000      12.29109000      -0.01131000      -0.02972800       0.23030300
Pt       5.61200000       8.10022000      12.29109000      -0.00704600       0.00428000       0.09981300
Pt      12.62699000       5.67015000      12.29109000       0.14049600      -0.07024500       0.13662200
Pt       9.82099000       5.67015000      12.29109000       0.00000000       0.00634800       0.14793400
Pt       2.80600000       1.62004000      14.58218000       0.01048000      -0.10725000      -0.12774700
Pt       7.01499000       5.67015000      12.29109000      -0.14049600      -0.07024500       0.13662200
Pt      11.22399000       3.24009000      12.29109000      -0.10966900      -0.02519900       0.12895100
Pt       8.41799000       3.24009000      12.29109000       0.10966900      -0.02519900       0.12895100
Pt       5.61200000       3.24009000      12.29109000       0.01335600       0.11061200       0.08554300
Pt       2.80600000       3.24009000      12.29109000      -0.01335600       0.11061200       0.08554300
Pt       9.82099000       0.81002000      12.29109000       0.00000000       0.01782900       0.23799000
Pt       7.01499000       0.81002000      12.29109000      -0.02230700       0.01591200       0.17961300
Pt       4.20900000       5.67015000      12.29109000       0.00000000      -0.10042100       0.07509800
Pt       5.61200000       1.62004000      14.58218000      -0.01048000      -0.10725000      -0.12774700
70
Lattice="11.223990791 0.0 0.0 5.611995395 9.720261156 0.0 0.0 0.0 29.886262579" Properties=species:S:1:pos:R:3:forces:R:3 energy=-419.51812805 pbc="T T T"
C        5.61200000       6.48017000      18.27026000      -0.01070500       0.00938200      -3.41726900
C        4.20900000       2.43007000      18.72826000       0.02911400      -0.01859400       0.25536000
C       11.22399000       2.43007000      18.49926000      -0.01866500       0.05721500      -3.13421500
O        5.61200000       6.48017000      19.42826000      -0.00066800      -0.00413400       3.16013100
O       11.22399000       2.43007000      19.65726000       0.00485400      -0.01606300       1.56725400
O        4.20900000       2.43007000      19.88626000      -0.01021000       0.00561300      -0.13308900
Pt      12.62699000       4.05011000      14.58218000       0.01375200       0.03146700      -0.26297200
Pt       4.20900000       4.05011000      14.58218000       0.04762300      -0.15169100      -0.15303700
Pt       7.01499000       4.05011000      14.58218000      -0.00888500       0.01536100      -0.17849800
Pt       9.82099000       4.05011000      14.58218000      -0.03730400       0.00066100      -0.30958200
Pt      14.02999000       6.48017000      14.58218000       0.01252000       0.03399900      -0.22358400
Pt       5.61200000       6.48017000      14.58218000      -0.02290100      -0.01273300      -0.57634000
Pt       8.41799000       6.48017000      14.58218000      -0.00175100       0.03269400      -0.22015600
Pt      11.22399000       6.48017000      14.58218000      -0.00118900      -0.05105200      -0.22907100
Pt      15.43299000       8.91024000      14.58218000      -0.00876500      -0.01399300      -0.19773700
Pt       7.01499000       8.91024000      14.58218000      -0.00524500       0.00845200      -0.20833800
Pt       9.82099000       8.91024000      14.58218000       0.00199800      -0.02749900      -0.24173500
Pt      12.62699000       8.91024000      14.58218000      -0.00307500       0.01967600      -0.27745800
Pt       0.00000000       0.00000000      16.87326000      -0.00466100      -0.18927800      -0.15609300
Pt       2.80600000       0.00000000      16.87326000      -0.07366300      -0.42462100      -0.15544200
Pt       8.41799000       1.62004000      14.58218000       0.14469100       0.09948600      -0.02460000
Pt       1.40300000       2.43007000      16.87326000      -0.66893200      -0.10822800       1.23266600
Pt       4.20900000       2.43007000      16.87326000       0.01653700      -0.03495800       0.91897300
Pt       7.01499000       2.43007000      16.87326000       0.41305100      -0.04586100      -0.12551300
Pt       9.82099000       2.43007000      16.87326000       0.22088200      -0.08521700       1.39480200
Pt       2.80600000       4.86013000      16.87326000      -0.42634900       0.32678100      -0.26440600
Pt       5.61200000       4.86013000      16.87326000       0.22704000       0.15835800       0.48123900
Pt       8.41799000       4.86013000      16.87326000       0.21719800      -0.05578200      -0.16294000
Pt      11.22399000       4.86013000      16.87326000      -0.00020600       0.58625500      -0.03078300
Pt       4.20900000       7.29020000      16.87326000      -0.19759500       0.15520100       0.63522600
Pt       7.01499000       7.29020000      16.87326000       0.21489800       0.11147600       0.63623400
Pt       9.82099000       7.29020000      16.87326000       0.02453300      -0.01829900       0.03949000
Pt      12.62699000       7.29020000      16.87326000      -0.03933400      -0.03051400       0.05178700
Pt       5.61200000       0.00000000      16.87326000       0.23044900      -0.37275100      -0.02962400
Pt       8.41799000       0.00000000      16.87326000      -0.13896500      -0.05888600      -0.03947000
Pt       0.00000000       0.00000000      10.00000000      -0.04245100      -0.03365700      -0.13186900
Pt      11.22399000       1.62004000      14.58218000       0.00892000      -0.11270200      -0.56732600
Pt       2.80600000       0.00000000      10.00000000       0.01275500      -0.00373500      -0.04303400
Pt       5.61200000       0.00000000      10.00000000      -0.00543700      -0.05889100      -0.17996300
Pt       8.41799000       0.00000000      10.00000000       0.03386000      -0.02767600      -0.11897000
Pt       1.40300000       2.43007000      10.00000000      -0.06069200       0.03182800      -0.09576200
Pt       4.20900000       2.43007000      10.00000000       0.00339600      -0.01666000      -0.07624300
Pt       7.01499000       2.43007000      10.00000000       0.00245800      -0.01723300      -0.04089600
Pt       9.82099000       2.43007000      10.00000000       0.05390300       0.01927500      -0.11781600
Pt       2.80600000       4.86013000      10.00000000       0.00878300       0.00452200      -0.04644200
Pt       5.61200000       4.86013000      10.00000000       0.00851900       0.00646000      -0.05117700
Pt       8.41799000       4.86013000      10.00000000      -0.00188300       0.00893300      -0.06109700
Pt      11.22399000       4.86013000      10.00000000      -0.00525200      -0.05950800      -0.09575600
Pt       4.20900000       7.29020000      10.00000000       0.00998800       0.05479600      -0.13712900
Pt       7.01499000       7.29020000      10.00000000      -0.02512700       0.00492400      -0.06780800
Pt       9.82099000       7.29020000      10.00000000       0.02955200       0.02818800      -0.07931800
Pt      12.62699000       7.29020000      10.00000000      -0.00373500       0.03988500      -0.08572700
Pt       1.40300000       0.81002000      12.29109000      -0.01728000       0.01097900       0.02955000
Pt       4.20900000       0.81002000      12.29109000       0.10765400      -0.03158500       0.15548300
Pt      14.02999000       8.10022000      12.29109000       0.01025100      -0.02206900       0.23033400
Pt      11.22399000       8.10022000      12.29109000      -0.00747500       0.02262000       0.21022800
Pt       8.41799000       8.10022000      12.29109000       0.00971400      -0.02353500       0.21164200
Pt       5.61200000       8.10022000      12.29109000      -0.00536900       0.04831800       0.21175800
Pt      12.62699000       5.67015000      12.29109000      -0.05075000       0.01358200       0.06377400
Pt       9.82099000       5.67015000      12.29109000       0.03315700       0.02304300       0.08294000
Pt       2.80600000       1.62004000      14.58218000      -0.04241500       0.19721800       0.02278500
Pt       7.01499000       5.67015000      12.29109000       0.04764700      -0.03538400       0.19380500
Pt      11.22399000       3.24009000      12.29109000       0.00433600       0.02703400       0.26564100
Pt       8.41799000       3.24009000      12.29109000       0.05035800      -0.03557200       0.16028500
Pt       5.61200000       3.24009000      12.29109000      -0.02620000       0.01556200       0.26245900
Pt       2.80600000       3.24009000      12.29109000      -0.04203400      -0.05897500       0.19686900
Pt       9.82099000       0.81002000      12.29109000      -0.04388400       0.03845000       0.11392500
Pt       7.01499000       0.81002000      12.29109000      -0.03536900      -0.08402600       0.03533800
Pt       4.20900000       5.67015000      12.29109000      -0.04036000       0.04918600       0.12099000
Pt       5.61200000       1.62004000      14.58218000      -0.11961200       0.04448200      -0.19268300
70
Lattice="11.223990791 0.0 0.0 5.611995395 9.720261156 0.0 0.0 0.0 29.657262579" Properties=species:S:1:pos:R:3:forces:R:3 energy=-419.22659352 pbc="T T T"
C        7.01499000       0.00000000      18.49926000       0.58423100      -0.10570800      -2.88475000
C        4.20900000       4.86013000      18.49926000       0.00448800       0.08450000      -3.03113000
C        4.20900000       0.81002000      18.27026000      -0.50990900       0.15809900      -3.24841000
O        7.01499000       0.00000000      19.65726000       0.00229800      -0.00300200       1.36117500
O        4.20900000       0.81002000      19.42826000      -0.09229300       0.04797800       3.02748100
O        4.20900000       4.86013000      19.65726000      -0.00095100      -0.01144800       1.49112200
Pt      12.62699000       4.05011000      14.58218000       0.12938900       0.11085000      -0.03011300
Pt       4.20900000       4.05011000      14.58218000       0.00496900      -0.18554000      -0.46129300
Pt       7.01499000       4.05011000      14.58218000      -0.12923300       0.07957200      -0.02393400
Pt       9.82099000       4.05011000      14.58218000       0.00399200      -0.00159300      -0.26338600
Pt      14.02999000       6.48017000      14.58218000      -0.04980700       0.00684200      -0.33203600
Pt       5.61200000       6.48017000      14.58218000       0.04335300       0.01073500      -0.38225500
Pt       8.41799000       6.48017000      14.58218000       0.00526700      -0.00569000      -0.28402800
Pt      11.22399000       6.48017000      14.58218000       0.00717300      -0.00618500      -0.23021800
Pt      15.43299000       8.91024000      14.58218000      -0.12904400       0.06070200      -0.07479100
Pt       7.01499000       8.91024000      14.58218000       0.09041200       0.04103700      -0.18295800
Pt       9.82099000       8.91024000      14.58218000       0.14743000       0.01850500      -0.25770000
Pt      12.62699000       8.91024000      14.58218000      -0.12445900      -0.01049800      -0.44922200
Pt       0.00000000       0.00000000      16.87326000       0.05983300      -0.03662900       0.01916800
Pt       2.80600000       0.00000000      16.87326000      -0.30263900      -0.14122000       0.68759600
Pt       8.41799000       1.62004000      14.58218000       0.05382600       0.01695100      -0.32571800
Pt       1.40300000       2.43007000      16.87326000      -0.48297500       0.11477900      -0.10058100
Pt       4.20900000       2.43007000      16.87326000      -0.12329700      -0.11910900       0.50681900
Pt       7.01499000       2.43007000      16.87326000       0.48764600       0.66500900      -0.18007300
Pt       9.82099000       2.43007000      16.87326000       0.11054500       0.12179800       0.05536700
Pt       2.80600000       4.86013000      16.87326000       0.23398200      -0.11193800       1.31824700
Pt       5.61200000       4.86013000      16.87326000      -0.24247400      -0.09211000       1.32610000
Pt       8.41799000       4.86013000      16.87326000       0.04222300      -0.03145300       0.05981200
Pt      11.22399000       4.86013000      16.87326000      -0.02664400       0.00131800       0.04068100
Pt       4.20900000       7.29020000      16.87326000       0.12070800       0.46745100      -0.07495800
Pt       7.01499000       7.29020000      16.87326000       0.09838500       0.12536200       0.01572800
Pt       9.82099000       7.29020000      16.87326000      -0.12928300      -0.49380100      -0.07991000
Pt      12.62699000       7.29020000      16.87326000      -0.11020200      -0.42826000      -0.06836300
Pt       5.61200000       0.00000000      16.87326000       0.53794900      -0.33162500       1.57978100
Pt       8.41799000       0.00000000      16.87326000      -0.24338200      -0.08770400       1.38964500
Pt       0.00000000       0.00000000      10.00000000      -0.02516800       0.01682700      -0.06002500
Pt      11.22399000       1.62004000      14.58218000      -0.00320400       0.01017900      -0.29030500
Pt       2.80600000       0.00000000      10.00000000       0.00785600      -0.00554000      -0.03192500
Pt       5.61200000       0.00000000      10.00000000      -0.00699100       0.01387600      -0.06306300
Pt       8.41799000       0.00000000      10.00000000       0.01589300       0.02717100      -0.05739300
Pt       1.40300000       2.43007000      10.00000000      -0.01573800       0.00223000      -0.04063300
Pt       4.20900000       2.43007000      10.00000000      -0.00849800      -0.01367200      -0.06032500
Pt       7.01499000       2.43007000      10.00000000       0.00997300      -0.01467200      -0.02995300
Pt       9.82099000       2.43007000      10.00000000       0.00919500      -0.04615500      -0.18781100
Pt       2.80600000       4.86013000      10.00000000       0.01197400       0.01832400      -0.05127500
Pt       5.61200000       4.86013000      10.00000000       0.00282500       0.03874700      -0.06530900
Pt       8.41799000       4.86013000      10.00000000      -0.01134800       0.02449900      -0.05413800
Pt      11.22399000       4.86013000      10.00000000      -0.00867000      -0.02491300      -0.03329400
Pt       4.20900000       7.29020000      10.00000000       0.00077300      -0.00616000      -0.17512100
Pt       7.01499000       7.29020000      10.00000000      -0.00290700      -0.04370100      -0.17513800
Pt       9.82099000       7.29020000      10.00000000      -0.00761400      -0.00703500      -0.04179000
Pt      12.62699000       7.29020000      10.00000000       0.00292500      -0.00186400      -0.05841000
Pt       1.40300000       0.81002000      12.29109000      -0.02764000      -0.02388700       0.16374800
Pt       4.20900000       0.81002000      12.29109000       0.02093300      -0.00728400       0.27848800
Pt      14.02999000       8.10022000      12.29109000       0.11537900      -0.02356900       0.05404500
Pt      11.22399000       8.10022000      12.29109000       0.00704300      -0.01822900       0.15159400
Pt       8.41799000       8.10022000      12.29109000      -0.12383500      -0.04440100       0.14550500
Pt       5.61200000       8.10022000      12.29109000       0.00715800      -0.06139200      -0.01631300
Pt      12.62699000       5.67015000      12.29109000       0.01259600      -0.00201300       0.22502100
Pt       9.82099000       5.67015000      12.29109000       0.00015200       0.01152700       0.19837000
Pt       2.80600000       1.62004000      14.58218000      -0.08400000       0.05036500      -0.43908200
Pt       7.01499000       5.67015000      12.29109000      -0.02391000       0.01472800       0.23879600
Pt      11.22399000       3.24009000      12.29109000      -0.09799500      -0.05563800       0.15059900
Pt       8.41799000       3.24009000      12.29109000       0.10861000      -0.01149700       0.06950800
Pt       5.61200000       3.24009000      12.29109000       0.00520200       0.06464900       0.10815100
Pt       2.80600000       3.24009000      12.29109000      -0.01698300       0.01544700       0.16602200
Pt       9.82099000       0.81002000      12.29109000      -0.01495000       0.01262600       0.23721300
Pt       7.01499000       0.81002000      12.29109000       0.02248400      -0.02550300       0.19931700
Pt       4.20900000       5.67015000      12.29109000       0.01529000       0.12212500       0.13959400
Pt       5.61200000       1.62004000      14.58218000       0.03168200       0.06582800      -0.50756200
70
Lattice="11.223990791 0.0 0.0 5.611995395 9.720261156 0.0 0.0 0.0 29.657262579" Properties=species:S:1:pos:R:3:forces:R:3 energy=-419.64272962 pbc="T T T"
C       14.02999000       6.48017000      18.27026000       0.00570400      -0.00062200      -3.31973100
C        4.20900000       0.00000000      18.49926000       0.00033200       0.05164300      -3.00424100
C        8.41799000       3.24009000      18.27026000       0.00898700      -0.00024200      -3.36476700
O       14.02999000       6.48017000      19.42826000      -0.00249700      -0.00108800       3.05800000
O        8.41799000       3.24009000      19.42826000      -0.00423000       0.00103200       3.07529900
O        4.20900000       0.00000000      19.65726000      -0.00400700      -0.01658900       1.46694400
Pt      12.62699000       4.05011000      14.58218000       0.03802600       0.00702500      -0.24465000
Pt       4.20900000       4.05011000      14.58218000      -0.03339300      -0.03478100      -0.24002400
Pt       7.01499000       4.05011000      14.58218000      -0.08183300       0.05302000      -0.48445300
Pt       9.82099000       4.05011000      14.58218000       0.07242900       0.04645400      -0.48275300
Pt      14.02999000       6.48017000      14.58218000       0.00133200       0.00721400      -0.60806800
Pt       5.61200000       6.48017000      14.58218000      -0.01707600       0.03803500      -0.27216400
Pt       8.41799000       6.48017000      14.58218000       0.01264800      -0.14622900      -0.14539300
Pt      11.22399000       6.48017000      14.58218000      -0.00105700       0.02896400      -0.22116100
Pt      15.43299000       8.91024000      14.58218000       0.02590100      -0.05355300      -0.25917000
Pt       7.01499000       8.91024000      14.58218000       0.15617700       0.11911600      -0.08525600
Pt       9.82099000       8.91024000      14.58218000       0.00113500      -0.08723400      -0.60891400
Pt      12.62699000       8.91024000      14.58218000      -0.15289900       0.07804600      -0.03061200
Pt       0.00000000       0.00000000      16.87326000      -0.01569200       0.02764400      -0.01268600
Pt       2.80600000       0.00000000      16.87326000       0.20404400      -0.10044300       1.36120400
Pt       8.41799000       1.62004000      14.58218000       0.00899900      -0.07774100      -0.48862400
Pt       1.40300000       2.43007000      16.87326000      -0.13038500       0.07723600      -0.03447100
Pt       4.20900000       2.43007000      16.87326000       0.03372700       0.50975900      -0.09703700
Pt       7.01499000       2.43007000      16.87326000      -0.19806400      -0.05550600       0.64931900
Pt       9.82099000       2.43007000      16.87326000       0.32307400      -0.18948000       0.69131500
Pt       2.80600000       4.86013000      16.87326000      -0.01798600      -0.25585300       0.67642300
Pt       5.61200000       4.86013000      16.87326000      -0.01976100      -0.00446500      -0.14002400
Pt       8.41799000       4.86013000      16.87326000       0.00028500       0.37981400       0.69216700
Pt      11.22399000       4.86013000      16.87326000       0.01900600       0.01905200      -0.16136000
Pt       4.20900000       7.29020000      16.87326000       0.21062100       0.12518300       0.67534100
Pt       7.01499000       7.29020000      16.87326000      -0.07475900      -0.07881600      -0.05165000
Pt       9.82099000       7.29020000      16.87326000      -0.03771500      -0.52219800      -0.05884800
Pt      12.62699000       7.29020000      16.87326000      -0.09180600       0.02620700       0.58635800
Pt       5.61200000       0.00000000      16.87326000      -0.25999500      -0.07178400       1.27745500
Pt       8.41799000       0.00000000      16.87326000       0.04612600      -0.03067000      -0.21105900
Pt       0.00000000       0.00000000      10.00000000       0.01714800      -0.00836500      -0.03708700
Pt      11.22399000       1.62004000      14.58218000      -0.14132800       0.08537500      -0.16346100
Pt       2.80600000       0.00000000      10.00000000       0.01044000       0.00477800      -0.20511300
Pt       5.61200000       0.00000000      10.00000000      -0.03612500       0.00438200      -0.04469500
Pt       8.41799000       0.00000000      10.00000000       0.00303200      -0.01707700      -0.03402700
Pt       1.40300000       2.43007000      10.00000000      -0.00225700      -0.01636100      -0.04848100
Pt       4.20900000       2.43007000      10.00000000      -0.01167300      -0.03108700      -0.04042300
Pt       7.01499000       2.43007000      10.00000000       0.07140900       0.03852900      -0.09397300
Pt       9.82099000       2.43007000      10.00000000      -0.05925000       0.03859900      -0.09196000
Pt       2.80600000       4.86013000      10.00000000       0.02550000       0.05097900      -0.06349000
Pt       5.61200000       4.86013000      10.00000000      -0.02955000       0.03393000      -0.06342200
Pt       8.41799000       4.86013000      10.00000000       0.00774900      -0.06899800      -0.09301900
Pt      11.22399000       4.86013000      10.00000000       0.00182000      -0.00209500      -0.04615000
Pt       4.20900000       7.29020000      10.00000000      -0.00540900      -0.06738600      -0.17983900
Pt       7.01499000       7.29020000      10.00000000       0.00326200       0.01564700      -0.03910200
Pt       9.82099000       7.29020000      10.00000000      -0.01351600       0.01030000      -0.05132100
Pt      12.62699000       7.29020000      10.00000000       0.01748700      -0.00739900      -0.04558900
Pt       1.40300000       0.81002000      12.29109000       0.11572700      -0.07646800       0.13649600
Pt       4.20900000       0.81002000      12.29109000      -0.10546600      -0.05324800       0.15132700
Pt      14.02999000       8.10022000      12.29109000       0.09841800      -0.00130700       0.13674500
Pt      11.22399000       8.10022000      12.29109000       0.03857300      -0.01137400       0.19612300
Pt       8.41799000       8.10022000      12.29109000      -0.03428100       0.11337700       0.08899300
Pt       5.61200000       8.10022000      12.29109000      -0.11496200      -0.04845700       0.14702000
Pt      12.62699000       5.67015000      12.29109000      -0.03298800      -0.03085900       0.19291100
Pt       9.82099000       5.67015000      12.29109000      -0.07106200       0.01946900       0.12051100
Pt       2.80600000       1.62004000      14.58218000      -0.03574300      -0.00125700      -0.35988800
Pt       7.01499000       5.67015000      12.29109000       0.06896100       0.00959900       0.10508700
Pt      11.22399000       3.24009000      12.29109000      -0.01803300      -0.07265500       0.11764900
Pt       8.41799000       3.24009000      12.29109000      -0.00855500      -0.00879400       0.27798300
Pt       5.61200000       3.24009000      12.29109000       0.03419100      -0.03261500       0.04975100
Pt       2.80600000       3.24009000      12.29109000      -0.01169900       0.04883000       0.14616800
Pt       9.82099000       0.81002000      12.29109000       0.05134300       0.06890800       0.10571700
Pt       7.01499000       0.81002000      12.29109000      -0.05777800       0.04217800       0.14083100
Pt       4.20900000       5.67015000      12.29109000       0.03840500       0.00509300       0.22684100