84
Lattice="11.223990791 0.0 0.0 5.611995395 9.720261156 0.0 0.0 0.0 29.886262579" Properties=species:S:1:pos:R:3:forces:R:3 energy=-529.46761712 pbc="T T T"
C        5.61200000       7.29020000      18.49926000       0.61050100      -0.49741200      -2.98215000
C        1.40300000       0.00000000      18.49926000       0.25245100       0.21064900      -2.52964700
C        4.20900000       0.81002000      18.27026000      -0.80018600      -1.65010900      -3.41069400
C       14.02999000       7.29020000      18.49926000      -0.90751200       1.26024400      -2.98801300
C       11.22399000       3.24009000      18.27026000       0.36499100       0.42549000      -3.61154400
C        9.82099000       7.29020000      18.72826000       0.29191900       0.22794600       0.23763400
C        9.82099000       0.81002000      18.27026000      -0.77733500      -0.28125600      -3.16468200
C        8.41799000       4.86013000      18.72826000      -0.29624700      -0.32210400       0.22763800
C        2.80600000       4.86013000      18.72826000       0.02328900      -1.03847700       0.53499700
C        5.61200000       2.43007000      18.49926000       2.13953600       2.15620000      -2.61938600
O        1.40300000       0.00000000      19.65726000       0.04464200       0.07808000       1.15421600
O       11.22399000       3.24009000      19.42826000       0.07171500       0.09159500       3.25807400
O        8.41799000       4.86013000      19.88626000      -0.07886800      -0.12065000      -0.16561800
O        5.61200000       7.29020000      19.65726000      -0.02067900      -0.08612000       1.41879900
O        2.80600000       4.86013000      19.88626000       0.01869200      -0.72232600      -0.26257000
O        9.82099000       0.81002000      19.42826000      -0.13929900      -0.09423600       2.97476500
O        9.82099000       7.29020000      19.88626000       0.05107400       0.12590700      -0.14967900
O       14.02999000       7.29020000      19.65726000      -0.01164400       0.75760300       1.32607100
O        4.20900000       0.81002000      19.42826000      -1.55671200      -1.81569600       3.02710300
O        5.61200000       2.43007000      19.65726000       1.14715900       1.40121100       1.26393000
Pt      11.22399000       6.48017000      14.58218000       0.01777700       0.07636900       0.08176500
Pt      15.43299000       8.91024000      14.58218000       0.13661100       0.01652000      -0.45557100
Pt       7.01499000       8.91024000      14.58218000       0.03442800       0.10687000      -0.38050500
Pt       9.82099000       8.91024000      14.58218000      -0.11966000      -0.06799500      -0.31962500
Pt      12.62699000       8.91024000      14.58218000      -0.07320200       0.17494300      -0.18554500
Pt       0.00000000       0.00000000      16.87326000       0.65590300       0.08915900       1.23023500
Pt       2.80600000       0.00000000      16.87326000      -0.64752700       0.08890300       1.42206900
Pt       5.61200000       0.00000000      16.87326000       0.22208400      -0.17530800       0.34828000
Pt       8.41799000       0.00000000      16.87326000      -0.25118200       0.41790300       0.39707700
Pt       1.40300000       2.43007000      16.87326000      -0.06881200       0.36719200       0.28010400
Pt       9.82099000       2.43007000      16.87326000      -0.21196200      -0.07151900       0.60278100
Pt       7.01499000       2.43007000      16.87326000      -0.71577400      -0.21674900       1.07196900
Pt       2.80600000       4.86013000      16.87326000       0.03914400      -0.49439700       0.57687700
Pt       5.61200000       4.86013000      16.87326000       0.11885700      -0.03405800      -0.40479200
Pt       8.41799000       4.86013000      16.87326000      -0.26290000      -0.16829000       0.74156500
Pt      11.22399000       4.86013000      16.87326000       0.07595700      -0.14531600       0.27827400
Pt       4.20900000       7.29020000      16.87326000       0.15867800      -0.32060800       2.16532400
Pt       7.01499000       7.29020000      16.87326000      -0.91005500      -0.35796900       0.91632600
Pt       8.41799000       6.48017000      14.58218000      -0.02324000       0.04707200      -0.06899500
Pt      12.62699000       7.29020000      16.87326000       0.52144900       0.15404600       0.96130200
Pt       4.20900000       2.43007000      16.87326000       0.40603100       0.23517100       1.14728700
Pt       9.82099000       7.29020000      16.87326000       0.34426500      -0.05255300       0.73434800
Pt       0.00000000       0.00000000      10.00000000       0.01561300      -0.04368600      -0.18026300
Pt       9.82099000       4.05011000      14.58218000      -0.18708000      -0.05720900      -0.31572900
Pt       4.20900000       0.81002000      12.29109000       0.04112700       0.00005600       0.05853100
Pt       1.40300000       0.81002000      12.29109000      -0.00979500      -0.02772500       0.10290400
Pt      12.62699000       7.29020000      10.00000000      -0.00228200      -0.00718900      -0.11415800
Pt       9.82099000       7.29020000      10.00000000       0.03665600       0.00771500      -0.17335300
Pt       7.01499000       7.29020000      10.00000000      -0.02595800       0.01072700      -0.03975700
Pt       4.20900000       7.29020000      10.00000000       0.00591300      -0.00353500      -0.20139400
Pt      11.22399000       4.86013000      10.00000000       0.00318600      -0.03083600      -0.13732200
Pt       8.41799000       4.86013000      10.00000000       0.00159000      -0.02977400      -0.16473400
Pt       5.61200000       4.86013000      10.00000000      -0.04000600      -0.03516300      -0.09124000
Pt       2.80600000       4.86013000      10.00000000       0.03936300      -0.00868100      -0.17612200
Pt       9.82099000       2.43007000      10.00000000      -0.03246900      -0.00411700      -0.14784800
Pt       7.01499000       2.43007000      10.00000000       0.02360500      -0.01194400      -0.14403600
Pt       4.20900000       2.43007000      10.00000000      -0.01010700       0.02168100      -0.17263400
Pt       1.40300000       2.43007000      10.00000000       0.02477600      -0.00866600      -0.12597900
Pt       8.41799000       0.00000000      10.00000000      -0.01002100       0.03576900      -0.09165000
Pt       5.61200000       0.00000000      10.00000000      -0.01980400      -0.00232900      -0.18664500
Pt       2.80600000       0.00000000      10.00000000       0.02544000       0.05396100      -0.09928600
Pt       7.01499000       0.81002000      12.29109000      -0.03888500      -0.07233600       0.01658400
Pt      14.02999000       6.48017000      14.58218000       0.16935800      -0.12328600      -0.43871600
Pt       9.82099000       0.81002000      12.29109000       0.04872400       0.01291200       0.09829100
Pt       5.61200000       3.24009000      12.29109000       0.00242800      -0.02124700       0.06835600
Pt       7.01499000       4.05011000      14.58218000       0.12075500       0.08644400      -0.26671300
Pt       4.20900000       4.05011000      14.58218000      -0.17544200      -0.07667800      -0.03573900
Pt      12.62699000       4.05011000      14.58218000       0.19153600       0.11124100      -0.45877500
Pt       8.41799000       1.62004000      14.58218000      -0.07968900       0.22156500      -0.04519500
Pt       5.61200000       1.62004000      14.58218000       0.11077100      -0.01004100      -0.88494400
Pt       2.80600000       1.62004000      14.58218000      -0.00637200       0.21552600      -0.20334500
Pt      11.22399000       1.62004000      14.58218000       0.04780300      -0.04050000      -0.88666400
Pt      14.02999000       8.10022000      12.29109000       0.00898000      -0.02103800       0.06522000
Pt      11.22399000       8.10022000      12.29109000       0.00493800       0.00863000       0.05236900
Pt       8.41799000       8.10022000      12.29109000       0.07530600      -0.03753800       0.11177100
Pt       5.61200000       8.10022000      12.29109000      -0.08824500      -0.04651200       0.16145500
Pt      12.62699000       5.67015000      12.29109000      -0.05862100      -0.05833400       0.07200900
Pt       9.82099000       5.67015000      12.29109000       0.02566500       0.05064200       0.07378200
Pt       7.01499000       5.67015000      12.29109000       0.04461100      -0.02564200       0.06724000
Pt       4.20900000       5.67015000      12.29109000      -0.01891900       0.06830800       0.08745800
Pt      11.22399000       3.24009000      12.29109000      -0.00825500       0.03942800       0.02865100
Pt       8.41799000       3.24009000      12.29109000      -0.01478700      -0.00386300       0.21735300
Pt       2.80600000       3.24009000      12.29109000       0.03066100       0.04160400       0.17114200
Pt       5.61200000       6.48017000      14.58218000      -0.14642600       0.04573500      -0.35067100
84
Lattice="11.223990791 0.0 0.0 5.611995395 9.720261156 0.0 0.0 0.0 29.886262579" Properties=species:S:1:pos:R:3:forces:R:3 energy=-526.32068147 pbc="T T T"
C       12.62699000       5.67015000      18.27026000       0.42884700      -3.59311700      -3.10956200
C        8.41799000       4.86013000      18.72826000      -0.17530000      -1.08607000       0.58713400
C       11.22399000       3.24009000      18.27026000      -0.10932700      -0.59793200      -3.41598200
C        5.61200000       2.43007000      18.49926000      -0.34493000       0.56261300      -2.96868400
C        7.01499000       0.00000000      18.49926000      -0.59943500       0.63223400      -2.68208700
C        9.82099000       0.00000000      18.49926000       0.22126000       0.45949600      -2.68500200
C        8.41799000       7.29020000      18.49926000      -0.69146500       0.81676000      -2.94633500
C       14.02999000       7.29020000      18.49926000       3.01527100       1.15347200      -2.22457100
C       11.22399000       7.29020000      18.49926000      -2.29587600       1.76548300      -2.17624200
C        1.40300000       0.00000000      18.49926000       0.68719000       0.53756600      -2.85432200
O        8.41799000       4.86013000      19.88626000       0.01345000      -0.71255700      -0.28313200
O        7.01499000       0.00000000      19.65726000       0.01271700       0.04232300       1.18931700
O       14.02999000       7.29020000      19.65726000       1.08140300       1.24494400       0.96238700
O       12.62699000       5.67015000      19.42826000       0.03987800      -3.46705700       2.75716100
O       11.22399000       7.29020000      19.65726000      -1.10540700       1.28175600       0.88114100
O        8.41799000       7.29020000      19.65726000       0.04090200       0.68469400       1.25412300
O        9.82099000       0.00000000      19.65726000       0.06003600       0.07794600       1.08033400
O        5.61200000       2.43007000      19.65726000      -0.02491200       0.06423500       1.49648200
O       11.22399000       3.24009000      19.42826000      -0.06057200      -0.13219800       3.12776000
O        1.40300000       0.00000000      19.65726000      -0.03945000       0.04757000       1.25431900
Pt      11.22399000       6.48017000      14.58218000      -0.03578500       0.08192900      -0.30502700
Pt      15.43299000       8.91024000      14.58218000       0.07193600       0.24770500      -0.28200300
Pt       7.01499000       8.91024000      14.58218000      -0.21901300       0.06379700      -0.54621800
Pt       9.82099000       8.91024000      14.58218000      -0.03834500       0.27766800      -0.06869800
Pt      12.62699000       8.91024000      14.58218000       0.16553800      -0.12994900      -0.43732800
Pt       0.00000000       0.00000000      16.87326000       0.01944100      -0.42769800       2.34397500
Pt       2.80600000       0.00000000      16.87326000      -0.56440100       0.47799800       1.09898500
Pt       5.61200000       0.00000000      16.87326000       0.39595500       0.10517500       0.99097800
Pt       8.41799000       0.00000000      16.87326000       0.13351600       0.44485500       2.14109600
Pt       1.40300000       2.43007000      16.87326000       0.32063200       0.21799900       0.37045200
Pt       9.82099000       2.43007000      16.87326000      -0.00468900       0.28677200       0.33776500
Pt       7.01499000       2.43007000      16.87326000      -0.62812700       0.17884100       0.91241200
Pt       2.80600000       4.86013000      16.87326000       0.22570200      -0.35431700       0.57023100
Pt       5.61200000       4.86013000      16.87326000      -0.36384400       0.34214100      -0.32822000
Pt       8.41799000       4.86013000      16.87326000      -0.28318000      -0.49928600       0.57778500
Pt      11.22399000       4.86013000      16.87326000       0.20878300      -0.43197000       0.50901700
Pt       4.20900000       7.29020000      16.87326000      -0.27743100      -0.71881000       1.22772900
Pt       7.01499000       7.29020000      16.87326000       0.24481700      -0.49198700       1.03576500
Pt       8.41799000       6.48017000      14.58218000       0.12125300      -0.11803800      -0.41405800
Pt      12.62699000       7.29020000      16.87326000      -0.02241800       0.08482800       1.38241100
Pt       4.20900000       2.43007000      16.87326000       0.37356500       0.02655900       1.10468700
Pt       9.82099000       7.29020000      16.87326000       0.08722400       0.03638700       2.35218600
Pt       0.00000000       0.00000000      10.00000000       0.01117700      -0.04352900      -0.16456600
Pt       9.82099000       4.05011000      14.58218000      -0.05874200       0.20288200      -0.28130400
Pt       4.20900000       0.81002000      12.29109000       0.06634300      -0.03158800       0.06983100
Pt       1.40300000       0.81002000      12.29109000      -0.05390500       0.00599900       0.12983500
Pt      12.62699000       7.29020000      10.00000000      -0.01172500      -0.04587900      -0.15613000
Pt       9.82099000       7.29020000      10.00000000      -0.00089000      -0.01588300      -0.13341300
Pt       7.01499000       7.29020000      10.00000000       0.01525700      -0.02903600      -0.14857100
Pt       4.20900000       7.29020000      10.00000000       0.01043800       0.00560800      -0.05393000
Pt      11.22399000       4.86013000      10.00000000       0.00732200       0.02144300      -0.11235200
Pt       8.41799000       4.86013000      10.00000000       0.00266400      -0.00418700      -0.22967400
Pt       5.61200000       4.86013000      10.00000000       0.00172200      -0.03644700      -0.15874900
Pt       2.80600000       4.86013000      10.00000000      -0.01736000      -0.02901500      -0.18544000
Pt       9.82099000       2.43007000      10.00000000      -0.00049100       0.02871300      -0.04797900
Pt       7.01499000       2.43007000      10.00000000      -0.02180000      -0.02313000      -0.19820500
Pt       4.20900000       2.43007000      10.00000000      -0.02118900      -0.00214300      -0.17959700
Pt       1.40300000       2.43007000      10.00000000       0.05600200      -0.00059100      -0.12528800
Pt       8.41799000       0.00000000      10.00000000      -0.02633100       0.02991700      -0.04372400
Pt       5.61200000       0.00000000      10.00000000       0.00879800       0.01018800      -0.17862500
Pt       2.80600000       0.00000000      10.00000000      -0.01365800       0.03874600      -0.10356600
Pt       7.01499000       0.81002000      12.29109000      -0.06978000       0.04538000       0.09876400
Pt      14.02999000       6.48017000      14.58218000      -0.11173000       0.06961100      -0.64772500
Pt       9.82099000       0.81002000      12.29109000       0.01798400      -0.01560400       0.13501700
Pt       5.61200000       3.24009000      12.29109000       0.02198100      -0.02080000      -0.00381600
Pt       7.01499000       4.05011000      14.58218000       0.18571200       0.09109000      -0.28891500
Pt       4.20900000       4.05011000      14.58218000      -0.16749100       0.10822000      -0.18771200
Pt      12.62699000       4.05011000      14.58218000       0.07243400      -0.10572800      -0.69772800
Pt       8.41799000       1.62004000      14.58218000      -0.03325000       0.15663900      -0.09801300
Pt       5.61200000       1.62004000      14.58218000      -0.04086200      -0.02534200      -0.73791800
Pt       2.80600000       1.62004000      14.58218000       0.05132000       0.21378000       0.04005600
Pt      11.22399000       1.62004000      14.58218000       0.01908800      -0.11232100      -0.60385800
Pt      14.02999000       8.10022000      12.29109000      -0.05462900      -0.01954600       0.14860200
Pt      11.22399000       8.10022000      12.29109000      -0.01559000       0.02983900       0.04763600
Pt       8.41799000       8.10022000      12.29109000       0.05238400      -0.00692800       0.09242400
Pt       5.61200000       8.10022000      12.29109000       0.05682900      -0.06464100       0.22710900
Pt      12.62699000       5.67015000      12.29109000       0.04273800      -0.00996700       0.14364200
Pt       9.82099000       5.67015000      12.29109000      -0.07271200      -0.06690400       0.16284400
Pt       7.01499000       5.67015000      12.29109000       0.01743800      -0.06050400       0.05021700
Pt       4.20900000       5.67015000      12.29109000       0.01970500      -0.07356300       0.06032900
Pt      11.22399000       3.24009000      12.29109000       0.00806000       0.00945200       0.10149000
Pt       8.41799000       3.24009000      12.29109000      -0.12389200       0.02619800       0.09345800
Pt       2.80600000       3.24009000      12.29109000       0.10187300       0.00690200       0.10181300
Pt       5.61200000       6.48017000      14.58218000      -0.01665100       0.25991100       0.24557300
84
Lattice="11.223990791 0.0 0.0 5.611995395 9.720261156 0.0 0.0 0.0 29.886262579" Properties=species:S:1:pos:R:3:forces:R:3 energy=-525.00402833 pbc="T T T"
C       11.22399000       8.10022000      18.27026000      -1.26206100      -2.22742200      -3.27674500
C       11.22399000       2.43007000      18.49926000      -2.79664800       1.62314900      -2.30445100
C        7.01499000       7.29020000      18.72826000       0.43258600       0.08127200       0.38020100
C        9.82099000       4.86013000      18.49926000       0.37051700       0.63907200      -2.76343000
C        7.01499000       0.00000000      18.49926000       4.40988000       0.05858700      -2.00945400
C        4.20900000       7.29020000      18.72826000      -0.45031300      -0.07716300       0.33214700
C        7.01499000       4.05011000      18.27026000      -0.23049400       0.35156900      -3.16637400
C        1.40300000       0.81002000      18.27026000       0.02963500      -3.92804600      -3.51552800
C        2.80600000       2.43007000      18.49926000       2.37821900       2.35231300      -2.16751600
C        5.61200000       1.62004000      18.27026000      -1.23175300       1.58904000      -2.75419600
O       11.22399000       2.43007000      19.65726000      -1.00949200       1.29271700       0.98663000
O        7.01499000       0.00000000      19.65726000       2.23234900      -0.03630400       0.83359400
O        1.40300000       0.81002000      19.42826000       0.00634400      -3.56903000       3.04558000
O       11.22399000       8.10022000      19.42826000      -1.65996200      -1.82020300       3.03920700
O        2.80600000       2.43007000      19.65726000       1.07966400       1.33885400       0.89911000
O        7.01499000       4.05011000      19.42826000      -0.07249100       0.06413600       2.98291600
O        4.20900000       7.29020000      19.88626000      -0.13528000       0.02177500      -0.16003600
O        9.82099000       4.86013000      19.65726000      -0.05400200       0.06405200       1.28011500
O        7.01499000       7.29020000      19.88626000       0.14180800      -0.02812000      -0.23170100
O        5.61200000       1.62004000      19.42826000      -1.61104800       1.67728000       2.65859300
Pt      11.22399000       6.48017000      14.58218000       0.08820200      -0.06284800      -0.58253700
Pt      15.43299000       8.91024000      14.58218000       0.00393800       0.05886800       0.10904300
Pt       7.01499000       8.91024000      14.58218000       0.00483700      -0.20513200      -0.45180200
Pt       9.82099000       8.91024000      14.58218000       0.00919400       0.22318800      -0.11220700
Pt      12.62699000       8.91024000      14.58218000      -0.01408900      -0.07847800      -0.82910100
Pt       0.00000000       0.00000000      16.87326000      -0.08006700       0.07081200       0.30716000
Pt       2.80600000       0.00000000      16.87326000      -0.25029300      -0.20946200       0.29001500
Pt       5.61200000       0.00000000      16.87326000      -0.05888600      -0.01117300       0.86200700
Pt       8.41799000       0.00000000      16.87326000      -0.56529000       0.04633700       1.21401800
Pt       1.40300000       2.43007000      16.87326000      -0.05335900       0.73898500       1.72849200
Pt       9.82099000       2.43007000      16.87326000       0.67890500      -0.51494100       1.09347300
Pt       7.01499000       2.43007000      16.87326000       0.07258800       0.28723700       0.65120800
Pt       2.80600000       4.86013000      16.87326000      -0.07723600       0.37262000      -0.35922200
Pt       5.61200000       4.86013000      16.87326000       0.02822400      -0.27436500       0.31246000
Pt       8.41799000       4.86013000      16.87326000       0.56145900      -0.26524200       1.37267400
Pt      11.22399000       4.86013000      16.87326000      -0.45405000       0.25359900       1.04841300
Pt       4.20900000       7.29020000      16.87326000      -0.37439900      -0.05182300       0.70714900
Pt       7.01499000       7.29020000      16.87326000       0.24781400       0.05362700       0.62797200
Pt       8.41799000       6.48017000      14.58218000      -0.04457800       0.05390900      -0.17037600
Pt      12.62699000       7.29020000      16.87326000      -0.15445600      -0.57806200       0.37661900
Pt       4.20900000       2.43007000      16.87326000      -0.46079300      -0.00228000       1.59785500
Pt       9.82099000       7.29020000      16.87326000       0.27913600       0.28150100       0.41293700
Pt       0.00000000       0.00000000      10.00000000       0.02494500      -0.00333100      -0.11911000
Pt       9.82099000       4.05011000      14.58218000      -0.09949500      -0.00548700      -0.59411100
Pt       4.20900000       0.81002000      12.29109000       0.04918600      -0.07551900       0.11681700
Pt       1.40300000       0.81002000      12.29109000      -0.02621300       0.02685300       0.06571100
Pt      12.62699000       7.29020000      10.00000000       0.00404800      -0.01751200      -0.23135100
Pt       9.82099000       7.29020000      10.00000000       0.02885600       0.00179800      -0.09246900
Pt       7.01499000       7.29020000      10.00000000       0.00251500      -0.02930800      -0.18890400
Pt       4.20900000       7.29020000      10.00000000      -0.00833800       0.01772400      -0.12877200
Pt      11.22399000       4.86013000      10.00000000       0.01546800      -0.03529100      -0.16544700
Pt       8.41799000       4.86013000      10.00000000       0.01723700       0.00849200      -0.14610000
Pt       5.61200000       4.86013000      10.00000000       0.01468500      -0.00474300      -0.16876400
Pt       2.80600000       4.86013000      10.00000000      -0.02961700      -0.00681100      -0.10740000
Pt       9.82099000       2.43007000      10.00000000       0.02639700       0.05586000      -0.12933800
Pt       7.01499000       2.43007000      10.00000000      -0.00520500       0.00512800      -0.03288500
Pt       4.20900000       2.43007000      10.00000000       0.00175000      -0.00932600      -0.15455700
Pt       1.40300000       2.43007000      10.00000000      -0.01430600       0.01477600      -0.18208000
Pt       8.41799000       0.00000000      10.00000000       0.01082200      -0.04364400      -0.12645100
Pt       5.61200000       0.00000000      10.00000000      -0.00868100      -0.03982600      -0.16151600
Pt       2.80600000       0.00000000      10.00000000      -0.03164900       0.02899900      -0.11567900
Pt       7.01499000       0.81002000      12.29109000      -0.01044900      -0.03941800       0.11145400
Pt      14.02999000       6.48017000      14.58218000      -0.01726000       0.15918900      -0.16556300
Pt       9.82099000       0.81002000      12.29109000      -0.05433300      -0.04859300       0.10369400
Pt       5.61200000       3.24009000      12.29109000      -0.11230400       0.08444700       0.12890500
Pt       7.01499000       4.05011000      14.58218000       0.17917800       0.10236100      -0.51620900
Pt       4.20900000       4.05011000      14.58218000       0.06846000      -0.02322600      -0.31987600
Pt      12.62699000       4.05011000      14.58218000      -0.13180700      -0.08763400       0.03691200
Pt       8.41799000       1.62004000      14.58218000       0.15613100       0.19992700      -0.05112700
Pt       5.61200000       1.62004000      14.58218000      -0.13421600      -0.06017500      -0.44446200
Pt       2.80600000       1.62004000      14.58218000      -0.11234900       0.13253400      -0.65100800
Pt      11.22399000       1.62004000      14.58218000       0.06850300       0.04372100      -0.68100600
Pt      14.02999000       8.10022000      12.29109000      -0.00306100      -0.11353900       0.10645200
Pt      11.22399000       8.10022000      12.29109000       0.08049400       0.00254200       0.04763100
Pt       8.41799000       8.10022000      12.29109000      -0.03039200      -0.00895400       0.11836600
Pt       5.61200000       8.10022000      12.29109000       0.03283000      -0.01813600       0.13438700
Pt      12.62699000       5.67015000      12.29109000      -0.02075100       0.04846300       0.06699200
Pt       9.82099000       5.67015000      12.29109000      -0.02322700      -0.00192200       0.08811300
Pt       7.01499000       5.67015000      12.29109000      -0.02503700       0.01582900       0.04328400
Pt       4.20900000       5.67015000      12.29109000       0.05019200      -0.02997700       0.01756600
Pt      11.22399000       3.24009000      12.29109000       0.09092700       0.00137600       0.15456500
Pt       8.41799000       3.24009000      12.29109000      -0.00508800      -0.01096900       0.18859200
Pt       2.80600000       3.24009000      12.29109000       0.02386000      -0.03471000       0.09542300
Pt       5.61200000       6.48017000      14.58218000       0.00303400       0.14362800      -0.24559300
84
Lattice="11.223990791 0.0 0.0 5.611995395 9.720261156 0.0 0.0 0.0 29.657262579" Properties=species:S:1:pos:R:3:forces:R:3 energy=-527.30759622 pbc="T T T"
C        8.41799000       2.43007000      18.49926000       0.04179700       0.47815600      -2.48625700
C        9.82099000       5.67015000      18.27026000       0.97211300      -1.41975200      -3.18947700
C        5.61200000       6.48017000      18.27026000       0.00368300      -0.53077300      -3.06072900
C        9.82099000       0.00000000      18.49926000       0.14946900       0.19028900      -2.45403200
C       12.62699000       8.91024000      18.27026000      -1.86008800       1.63360800      -3.13468900
C        5.61200000       2.43007000      18.49926000      -0.96106700       0.11100700      -2.74621900
C        1.40300000       0.00000000      18.49926000       0.68679400       0.63567500      -2.68678100
C        8.41799000       7.29020000      18.49926000      -1.26434100       1.91097700      -2.08882700
C       14.02999000       7.29020000      18.49926000       1.26337800      -2.42542000      -2.17313600
C       11.22399000       3.24009000      18.27026000       0.78987200      -0.24464400      -3.06957400
O        9.82099000       5.67015000      19.42826000       1.57640900      -1.77867100       2.81174300
O       12.62699000       8.91024000      19.42826000      -1.71691600       1.84727700       2.87250700
O        8.41799000       7.29020000      19.65726000      -1.11362400       1.30602900       0.83473000
O        8.41799000       2.43007000      19.65726000      -0.02904100       0.04337800       1.04253500
O       14.02999000       7.29020000      19.65726000       1.10080100      -1.48733600       0.90572500
O        1.40300000       0.00000000      19.65726000      -0.03714200       0.05240000       1.16625800
O        5.61200000       2.43007000      19.65726000      -0.01635400      -0.02396900       1.24122900
O        9.82099000       0.00000000      19.65726000       0.07633000      -0.03754500       1.02792400
O        5.61200000       6.48017000      19.42826000      -0.00278000      -0.05669400       2.91756000
O       11.22399000       3.24009000      19.42826000       0.15128500      -0.12505700       2.87683000
Pt      11.22399000       6.48017000      14.58218000       0.12304900       0.15652700       0.00601200
Pt      15.43299000       8.91024000      14.58218000       0.10806200       0.05331900      -0.43959200
Pt       7.01499000       8.91024000      14.58218000      -0.18158000      -0.01075100      -0.47904900
Pt       9.82099000       8.91024000      14.58218000      -0.02143200       0.03105300      -0.05545400
Pt      12.62699000       8.91024000      14.58218000       0.11461600       0.16797900      -0.63080100
Pt       0.00000000       0.00000000      16.87326000       0.00299500      -0.20458400       2.24268800
Pt       2.80600000       0.00000000      16.87326000      -0.36959200       0.41843900       1.08213800