26
Lattice="5.611995395 0.0 0.0 4.208996546 7.290195867 0.0 0.0 0.0 29.886262579" Properties=species:S:1:pos:R:3:forces:R:3 energy=-155.27377995 pbc="T T T"
C        2.80600000       4.86013000      18.72826000       0.00091600       0.00227800       0.08998300
O        2.80600000       4.86013000      19.88626000      -0.00072300      -0.00037800      -0.01231500
Pt       5.61200000       4.86013000      16.87326000      -0.00431800      -0.01525400      -0.16955900
Pt       2.80600000       4.86013000      16.87326000       0.00734100       0.01667600       0.99645500
Pt       4.20900000       2.43007000      16.87326000       0.21015700      -0.36572200      -0.03885300
Pt       1.40300000       2.43007000      16.87326000      -0.21444400      -0.41503300      -0.02262900
Pt       2.80600000       0.00000000      16.87326000      -0.19524700       0.37339200      -0.06218800
Pt       0.00000000       0.00000000      16.87326000       0.19798400       0.39404500      -0.04945500
Pt       5.61200000       6.48017000      14.58218000      -0.00020800       0.04494800      -0.17649500
Pt       8.41799000       6.48017000      14.58218000       0.00345000      -0.12112200      -0.16039200
Pt       4.20900000       4.05011000      14.58218000      -0.10635000       0.06576600      -0.19728400
Pt       7.01499000       4.05011000      14.58218000       0.10836800       0.05198600      -0.19458700
Pt       2.80600000       1.62004000      14.58218000       0.00553100      -0.06553400      -0.22504300
Pt       0.00000000       0.00000000      10.00000000       0.00519600       0.01782400      -0.07159100
Pt       4.20900000       5.67015000      12.29109000      -0.01107000      -0.02600600       0.23383700
Pt       5.61200000       3.24009000      12.29109000      -0.01740100      -0.09053400       0.01122400
Pt       2.80600000       3.24009000      12.29109000       0.01163000      -0.00976900       0.23991700
Pt       4.20900000       0.81002000      12.29109000       0.00551400       0.11113700       0.10089800
Pt       1.40300000       0.81002000      12.29109000      -0.00647200       0.04119700       0.20104900
Pt       5.61200000       4.86013000      10.00000000       0.00262600       0.00349000      -0.04787000
Pt       2.80600000       4.86013000      10.00000000      -0.00278000      -0.01800100      -0.06733100
Pt       4.20900000       2.43007000      10.00000000      -0.05611600       0.05076000      -0.17321600
Pt       1.40300000       2.43007000      10.00000000       0.05201100      -0.02566400      -0.11205900
Pt       2.80600000       0.00000000      10.00000000      -0.00606000      -0.00580300      -0.05483700
Pt       7.01499000       5.67015000      12.29109000       0.01641300      -0.01299000       0.22731300
Pt       5.61200000       1.62004000      14.58218000      -0.00595000      -0.00169000      -0.26497300
26
Lattice="5.611995395 0.0 0.0 4.208996546 7.290195867 0.0 0.0 0.0 29.428262579" Properties=species:S:1:pos:R:3:forces:R:3 energy=-155.37638803 pbc="T T T"
C        4.20900000       0.81002000      18.27026000       0.00611400      -0.00577000      -3.34753100
O        4.20900000       0.81002000      19.42826000      -0.00396800       0.00727400       3.07765700
Pt       5.61200000       4.86013000      16.87326000      -0.00036300       0.03750000      -0.03497700
Pt       2.80600000       4.86013000      16.87326000       0.00400100      -0.38381400      -0.05734100
Pt       4.20900000       2.43007000      16.87326000      -0.00590000       0.34920100       0.63663200
Pt       1.40300000       2.43007000      16.87326000       0.00047900       0.36931500      -0.13778100
Pt       2.80600000       0.00000000      16.87326000      -0.27510100      -0.17260600       0.63910200
Pt       0.00000000       0.00000000      16.87326000       0.27883500      -0.18405000       0.61005100
Pt       5.61200000       6.48017000      14.58218000      -0.01415000       0.07736700      -0.08362100
Pt       8.41799000       6.48017000      14.58218000       0.00482100      -0.12840800      -0.51145100
Pt       4.20900000       4.05011000      14.58218000      -0.00142000      -0.09936100      -0.14797400
Pt       7.01499000       4.05011000      14.58218000      -0.00243100      -0.01187300      -0.24198000
Pt       2.80600000       1.62004000      14.58218000      -0.06431400       0.05118000      -0.43657000
Pt       0.00000000       0.00000000      10.00000000      -0.01849900       0.03409200      -0.10106500
Pt       4.20900000       5.67015000      12.29109000      -0.05390700       0.03953100       0.04277300
Pt       5.61200000       3.24009000      12.29109000      -0.00808000       0.02673400       0.18444600
Pt       2.80600000       3.24009000      12.29109000       0.00695600       0.05561800       0.20819500
Pt       4.20900000       0.81002000      12.29109000       0.01438400      -0.01038400       0.26075700
Pt       1.40300000       0.81002000      12.29109000      -0.01356500      -0.06377300       0.18559300
Pt       5.61200000       4.86013000      10.00000000       0.00793300       0.00127000      -0.04591600
Pt       2.80600000       4.86013000      10.00000000      -0.00233000      -0.03974700      -0.14376400
Pt       4.20900000       2.43007000      10.00000000      -0.00706100       0.00562500      -0.07572800
Pt       1.40300000       2.43007000      10.00000000       0.00752800       0.01535400      -0.08600000
Pt       2.80600000       0.00000000      10.00000000       0.01396800      -0.00675500      -0.05150800
Pt       7.01499000       5.67015000      12.29109000       0.05748200      -0.04534300       0.10098600
Pt       5.61200000       1.62004000      14.58218000       0.06858900       0.08182300      -0.44298400
26
Lattice="5.611995395 0.0 0.0 4.208996546 7.290195867 0.0 0.0 0.0 29.657262579" Properties=species:S:1:pos:R:3:forces:R:3 energy=-155.20087767 pbc="T T T"
C        2.80600000       2.43007000      18.49926000       0.01150500       0.06978000      -3.08624700
O        2.80600000       2.43007000      19.65726000      -0.00516600      -0.02106300       1.52267300
Pt       5.61200000       4.86013000      16.87326000       0.00562100       0.22254800      -0.01426100
Pt       2.80600000       4.86013000      16.87326000       0.00141200       0.53932700      -0.00984200
Pt       4.20900000       2.43007000      16.87326000      -0.26946900      -0.10119600       1.33612300
Pt       1.40300000       2.43007000      16.87326000       0.25975300      -0.10967500       1.33485100
Pt       2.80600000       0.00000000      16.87326000      -0.00789200      -0.54317300       0.03029900
Pt       0.00000000       0.00000000      16.87326000       0.00753600      -0.14779500      -0.04537600
Pt       5.61200000       6.48017000      14.58218000       0.00646500      -0.02527800      -0.26332700
Pt       8.41799000       6.48017000      14.58218000      -0.01429500      -0.04385900      -0.24642700
Pt       4.20900000       4.05011000      14.58218000       0.01775700       0.06142600      -0.30139400
Pt       7.01499000       4.05011000      14.58218000      -0.00778300       0.04296600      -0.31470700
Pt       2.80600000       1.62004000      14.58218000       0.00742300      -0.12200300      -0.60775600
Pt       0.00000000       0.00000000      10.00000000       0.00031800       0.02682700      -0.03278400
Pt       4.20900000       5.67015000      12.29109000       0.01335100       0.03861800       0.11158800
Pt       5.61200000       3.24009000      12.29109000      -0.00896000      -0.05208400       0.24352100
Pt       2.80600000       3.24009000      12.29109000       0.01054900       0.01057300       0.23818800
Pt       4.20900000       0.81002000      12.29109000      -0.05659200      -0.05989700       0.11420000
Pt       1.40300000       0.81002000      12.29109000       0.06067800      -0.05170800       0.09806500
Pt       5.61200000       4.86013000      10.00000000       0.01713500       0.01592800      -0.07440800
Pt       2.80600000       4.86013000      10.00000000      -0.01882700      -0.00593200      -0.04202600
Pt       4.20900000       2.43007000      10.00000000      -0.02517900      -0.00737400      -0.04831800
Pt       1.40300000       2.43007000      10.00000000       0.02056500      -0.00175600      -0.03996500
Pt       2.80600000       0.00000000      10.00000000       0.00366600      -0.01912100      -0.17621800
Pt       7.01499000       5.67015000      12.29109000      -0.01320200       0.09150400       0.14887900
Pt       5.61200000       1.62004000      14.58218000      -0.01636900       0.19241800       0.12466900
26
Lattice="5.611995395 0.0 0.0 4.208996546 7.290195867 0.0 0.0 0.0 29.428262579" Properties=species:S:1:pos:R:3:forces:R:3 energy=-155.35536393 pbc="T T T"
C        2.80600000       1.62004000      18.27026000       0.00932300      -0.01979200      -3.35824600
O        2.80600000       1.62004000      19.42826000      -0.00468500       0.00041000       3.06059300
Pt       5.61200000       4.86013000      16.87326000      -0.03665200       0.02154900       0.02156700
Pt       2.80600000       4.86013000      16.87326000       0.03212600       0.31969300      -0.08445400
Pt       4.20900000       2.43007000      16.87326000       0.15270500       0.12279600       0.61491900
Pt       1.40300000       2.43007000      16.87326000      -0.16273700       0.13124900       0.60938500
Pt       2.80600000       0.00000000      16.87326000      -0.00649600      -0.23903500       0.68714200
Pt       0.00000000       0.00000000      16.87326000       0.00697900      -0.34090400      -0.18832200
Pt       5.61200000       6.48017000      14.58218000       0.00752500      -0.02599600      -0.25160000
Pt       8.41799000       6.48017000      14.58218000      -0.01127300      -0.01630400      -0.26747600
Pt       4.20900000       4.05011000      14.58218000       0.00615600       0.02922700      -0.25222900
Pt       7.01499000       4.05011000      14.58218000      -0.00015400       0.00415900      -0.25806900
Pt       2.80600000       1.62004000      14.58218000       0.01061400      -0.01032500      -0.60283700
Pt       0.00000000       0.00000000      10.00000000      -0.00245500       0.02620600      -0.07039700
Pt       4.20900000       5.67015000      12.29109000       0.01331800      -0.01899800       0.00663700
Pt       5.61200000       3.24009000      12.29109000      -0.00876200      -0.00448800       0.26784500
Pt       2.80600000       3.24009000      12.29109000       0.00802100       0.03286200       0.20739900
Pt       4.20900000       0.81002000      12.29109000      -0.00635000      -0.04990200       0.16389600
Pt       1.40300000       0.81002000      12.29109000       0.01183700      -0.03399600       0.15992000
Pt       5.61200000       4.86013000      10.00000000       0.03740900      -0.00485100      -0.08730500
Pt       2.80600000       4.86013000      10.00000000      -0.03391300      -0.01285700      -0.08687900
Pt       4.20900000       2.43007000      10.00000000      -0.00911400      -0.00121500      -0.07837000
Pt       1.40300000       2.43007000      10.00000000       0.00908800       0.00676900      -0.07205800
Pt       2.80600000       0.00000000      10.00000000       0.00320700      -0.00406000      -0.10697100
Pt       7.01499000       5.67015000      12.29109000      -0.00992500       0.06836300       0.19486200
Pt       5.61200000       1.62004000      14.58218000      -0.01579200       0.01944000      -0.22895200
