42
Lattice="5.611995395 0.0 0.0 5.611995395 9.720261156 0.0 0.0 0.0 29.428262579" Properties=species:S:1:pos:R:3:forces:R:3 energy=-265.01881215 pbc="T T T"
C        4.20900000       5.67015000      18.27026000       0.33374800       0.19244000      -2.45855500
C        5.61200000       8.10022000      18.27026000       0.24815500       0.38449500      -2.57578700
C        4.20900000       0.81002000      18.27026000      -0.17009000      -0.07572900      -2.80531700
C        2.80600000       3.24009000      18.27026000      -0.42584700      -0.88341500      -2.66985600
C        7.01499000       5.67015000      18.27026000      -0.32951700       0.15975300      -2.45578300
O        5.61200000       8.10022000      19.42826000       0.03800300       0.09091300       2.58179600
O        4.20900000       5.67015000      19.42826000      -0.04085000      -0.02250600       2.45909600
O        2.80600000       3.24009000      19.42826000      -0.06773400      -0.05014700       2.59246200
O        4.20900000       0.81002000      19.42826000      -0.03290900      -0.01896800       2.70433100
O        7.01499000       5.67015000      19.42826000       0.04270600      -0.02224000       2.46664200
Pt       7.01499000       7.29020000      16.87326000       0.25624400       0.36846800       0.64651700
Pt       5.61200000       6.48017000      14.58218000       0.00186400       0.02574800      -0.99312300
Pt       5.61200000       4.86013000      16.87326000      -0.01416700      -0.24589000       0.65978500
Pt       2.80600000       4.86013000      16.87326000       0.02544100       0.04090400       0.57828800
Pt       4.20900000       2.43007000      16.87326000       0.27189800      -0.07532100       0.66340700
Pt       1.40300000       2.43007000      16.87326000      -0.02966300      -0.02751800       0.34878700
Pt       2.80600000       0.00000000      16.87326000      -0.08245300      -0.01882600       0.30216200
Pt       0.00000000       0.00000000      16.87326000       0.33258600       0.16662500       0.71270600
Pt       7.01499000       8.91024000      14.58218000       0.06844400       0.03311400      -0.14376500
Pt       9.82099000       8.91024000      14.58218000      -0.07641600      -0.17899700      -0.56587200
Pt       4.20900000       7.29020000      16.87326000      -0.25351900       0.10900300       0.64393800
Pt       0.00000000       0.00000000      10.00000000      -0.00921200       0.00370700      -0.08872100
Pt       7.01499000       4.05011000      14.58218000      -0.08412300       0.08366300      -0.44388400
Pt       2.80600000       0.00000000      10.00000000       0.00065500       0.00213200      -0.17247100
Pt       1.40300000       2.43007000      10.00000000      -0.00356300       0.01323900      -0.16926000
Pt       4.20900000       2.43007000      10.00000000       0.00468600      -0.00207800      -0.18803600
Pt       2.80600000       4.86013000      10.00000000       0.00996600      -0.00952200      -0.10097600
Pt       5.61200000       4.86013000      10.00000000      -0.01534500      -0.01698300      -0.17163000
Pt       4.20900000       7.29020000      10.00000000      -0.01654200      -0.01788700      -0.16785500
Pt       7.01499000       7.29020000      10.00000000      -0.00268000       0.00591500      -0.08491700
Pt       1.40300000       0.81002000      12.29109000       0.02847400       0.01578000       0.01189800
Pt       4.20900000       0.81002000      12.29109000      -0.05242400       0.05639400       0.07269800
Pt       2.80600000       3.24009000      12.29109000       0.00881400      -0.08100000       0.06105100
Pt       5.61200000       3.24009000      12.29109000      -0.01272000      -0.03064000       0.01540500
Pt       4.20900000       5.67015000      12.29109000       0.03763900       0.02455500       0.06369900
Pt       7.01499000       5.67015000      12.29109000      -0.04571400      -0.06145800       0.12636700
Pt       5.61200000       8.10022000      12.29109000      -0.05842400      -0.01236500       0.13322900
Pt       8.41799000       8.10022000      12.29109000       0.03233800       0.04063700       0.07745200
Pt       5.61200000       1.62004000      14.58218000       0.06541100       0.04675200      -0.17890300
Pt       2.80600000       1.62004000      14.58218000      -0.09107200      -0.07380100      -0.73963400
Pt       4.20900000       4.05011000      14.58218000       0.08652000      -0.02972500      -0.39081400
Pt       8.41799000       6.48017000      14.58218000       0.02139200       0.09078000      -0.35656200
42
Lattice="5.611995395 0.0 0.0 5.611995395 9.720261156 0.0 0.0 0.0 29.657262579" Properties=species:S:1:pos:R:3:forces:R:3 energy=-262.46622142 pbc="T T T"
C        4.20900000       0.00000000      18.49926000       0.11382300      -0.10885300      -2.37269700
C        8.41799000       7.29020000      18.49926000      -2.45415300       1.55231600      -2.36548800
C        4.20900000       5.67015000      18.27026000       1.24753200      -1.92123400      -3.30784200
C        1.40300000       0.81002000      18.27026000       1.20665000      -1.49716100      -3.02638900
C        5.61200000       2.43007000      18.49926000      -1.84686700       2.62163800      -2.33331000
O        8.41799000       7.29020000      19.65726000      -1.17909000       1.34184900       1.01153000
O        4.20900000       0.00000000      19.65726000      -0.00695200      -0.00639400       1.00373100
O        1.40300000       0.81002000      19.42826000       1.64337300      -1.80168500       2.75219000
O        4.20900000       5.67015000      19.42826000       1.67037500      -1.85939600       2.96064500
O        5.61200000       2.43007000      19.65726000      -1.12038800       1.45383800       1.00985000
Pt       7.01499000       7.29020000      16.87326000       0.64992000      -0.32355100       1.13860000
Pt       5.61200000       6.48017000      14.58218000       0.07905500       0.28084400      -0.06972900
Pt       5.61200000       4.86013000      16.87326000       0.05727300       0.30635900       0.48619900
Pt       2.80600000       4.86013000      16.87326000      -0.09038800      -0.38226500       0.34748800
Pt       4.20900000       2.43007000      16.87326000       0.55493500       0.31183900       1.03713000
Pt       1.40300000       2.43007000      16.87326000      -0.15500200       0.58701700       1.33338200
Pt       2.80600000       0.00000000      16.87326000       0.51115800       0.19262900       1.42322500
Pt       0.00000000       0.00000000      16.87326000      -0.57544000      -0.70050400       1.31854200
Pt       7.01499000       8.91024000      14.58218000      -0.05767900       0.18481500      -0.14326300
Pt       9.82099000       8.91024000      14.58218000       0.04458700      -0.08744900      -0.32241900
Pt       4.20900000       7.29020000      16.87326000      -0.11443800      -0.09075700       1.04019800
Pt       0.00000000       0.00000000      10.00000000      -0.02096800      -0.04137500      -0.14372500
Pt       7.01499000       4.05011000      14.58218000       0.06830000      -0.01051700      -0.01199600
Pt       2.80600000       0.00000000      10.00000000       0.01400300      -0.00560500      -0.04090200
Pt       1.40300000       2.43007000      10.00000000      -0.00775300       0.02230100      -0.07768700
Pt       4.20900000       2.43007000      10.00000000      -0.01033800      -0.00994600      -0.15454400
Pt       2.80600000       4.86013000      10.00000000      -0.00628100      -0.00637000      -0.18379600
Pt       5.61200000       4.86013000      10.00000000      -0.00636200       0.00724100      -0.07429000
Pt       4.20900000       7.29020000      10.00000000      -0.00621100      -0.01953700      -0.17402600
Pt       7.01499000       7.29020000      10.00000000      -0.00115000       0.01552900      -0.17224300
Pt       1.40300000       0.81002000      12.29109000      -0.05654900      -0.02305900       0.14410000
Pt       4.20900000       0.81002000      12.29109000       0.03748300       0.04706600       0.10107700
Pt       2.80600000       3.24009000      12.29109000       0.05459800       0.01121900       0.08852700
Pt       5.61200000       3.24009000      12.29109000      -0.03691500      -0.00129400       0.09170500
Pt       4.20900000       5.67015000      12.29109000      -0.06764200       0.01324000       0.07010600
Pt       7.01499000       5.67015000      12.29109000       0.01579500      -0.00683900       0.04017300
Pt       5.61200000       8.10022000      12.29109000       0.01566400      -0.11001300       0.10889300
Pt       8.41799000       8.10022000      12.29109000      -0.00344100      -0.07588900       0.08105800
Pt       5.61200000       1.62004000      14.58218000      -0.07013500      -0.03041400      -0.96649400
Pt       2.80600000       1.62004000      14.58218000       0.04657500       0.34355600      -0.21040600
Pt       4.20900000       4.05011000      14.58218000      -0.06000100      -0.09530300      -0.54750100
Pt       8.41799000       6.48017000      14.58218000      -0.07695800      -0.07788600      -0.88960200
42
Lattice="5.611995395 0.0 0.0 5.611995395 9.720261156 0.0 0.0 0.0 29.886262579" Properties=species:S:1:pos:R:3:forces:R:3 energy=-263.93099422 pbc="T T T"
C        7.01499000       4.86013000      18.49926000       1.92104300      -2.49871000      -2.58349800
C        5.61200000       6.48017000      18.27026000      -1.40132300       1.52948900      -3.00633700
C        1.40300000       0.00000000      18.49926000      -0.26399900       0.68242200      -3.11548900
C        4.20900000       2.43007000      18.72826000      -0.00808300      -0.04777500       0.22069100
C        8.41799000       7.29020000      18.49926000       0.49415800       0.35939900      -2.46756700
O        5.61200000       6.48017000      19.42826000      -1.61724300       1.78534700       2.79405400
O        7.01499000       4.86013000      19.65726000       1.09880600      -1.51192200       1.23545800
O        4.20900000       2.43007000      19.88626000       0.00270700       0.01335200      -0.15281700
O        1.40300000       0.00000000      19.65726000      -0.04936100       0.03876500       1.56979000
O        8.41799000       7.29020000      19.65726000       0.08900800      -0.05285900       1.08955900
Pt       7.01499000       7.29020000      16.87326000       0.38296000       0.06009100       1.04181600
Pt       5.61200000       6.48017000      14.58218000      -0.01889700       0.28907200      -0.44613900
Pt       5.61200000       4.86013000      16.87326000       0.39986000      -0.32300300       1.22094900
Pt       2.80600000       4.86013000      16.87326000      -0.77428200      -0.55167100       1.01266300
Pt       4.20900000       2.43007000      16.87326000      -0.04558800      -0.01797300       0.85088600
Pt       1.40300000       2.43007000      16.87326000       0.01540700      -0.02406800      -0.36797000
Pt       2.80600000       0.00000000      16.87326000      -0.52909000       0.14488000       0.98452900
Pt       0.00000000       0.00000000      16.87326000       0.63260300       0.02538300       1.00541700
Pt       7.01499000       8.91024000      14.58218000      -0.00827400      -0.13108800      -0.66654200
Pt       9.82099000       8.91024000      14.58218000       0.02052000       0.21838500       0.17572700
Pt       4.20900000       7.29020000      16.87326000      -0.40104700      -0.05770400       1.58048500
Pt       0.00000000       0.00000000      10.00000000      -0.00445500      -0.00247200      -0.11811600
Pt       7.01499000       4.05011000      14.58218000      -0.05129900      -0.12617800      -0.59285000
Pt       2.80600000       0.00000000      10.00000000       0.00918900      -0.00735200      -0.11148100
Pt       1.40300000       2.43007000      10.00000000      -0.00076700      -0.03438200      -0.20292600
Pt       4.20900000       2.43007000      10.00000000       0.01094600       0.04686200      -0.15206500
Pt       2.80600000       4.86013000      10.00000000      -0.02303700      -0.02529000      -0.15889800
Pt       5.61200000       4.86013000      10.00000000       0.02146500      -0.00145200      -0.11196600
Pt       4.20900000       7.29020000      10.00000000      -0.00316900       0.04972500      -0.11696800
Pt       7.01499000       7.29020000      10.00000000      -0.00063900      -0.05909700      -0.16096300
Pt       1.40300000       0.81002000      12.29109000      -0.00045400       0.05782500       0.00226100
Pt       4.20900000       0.81002000      12.29109000       0.00415200       0.04452100       0.21261600
Pt       2.80600000       3.24009000      12.29109000      -0.01601000      -0.02890000       0.05925400
Pt       5.61200000       3.24009000      12.29109000       0.06171800      -0.01983400       0.08061100
Pt       4.20900000       5.67015000      12.29109000      -0.01594100      -0.04682300       0.10090900
Pt       7.01499000       5.67015000      12.29109000       0.02758900      -0.06617700       0.13318300
Pt       5.61200000       8.10022000      12.29109000       0.01020300      -0.01220500       0.12817800
Pt       8.41799000       8.10022000      12.29109000      -0.03615400      -0.03354100       0.15434600
Pt       5.61200000       1.62004000      14.58218000      -0.12823700       0.07842500      -0.30918700
Pt       2.80600000       1.62004000      14.58218000       0.12118100       0.07999600      -0.31595800
Pt       4.20900000       4.05011000      14.58218000       0.05468600       0.13627500       0.18516000
Pt       8.41799000       6.48017000      14.58218000       0.01914800       0.04026200      -0.68080600
42
Lattice="5.611995395 0.0 0.0 5.611995395 9.720261156 0.0 0.0 0.0 29.886262579" Properties=species:S:1:pos:R:3:forces:R:3 energy=-261.11963954 pbc="T T T"
C        4.20900000       7.29020000      18.72826000      -0.00946000      -0.04367700       0.50527900
C        1.40300000       0.81002000      18.27026000       1.11857200      -1.81430800      -2.86870000
C        4.20900000       0.81002000      18.27026000      -1.15650800      -1.96911800      -2.86245800
C        5.61200000       2.43007000      18.49926000       2.24545500       2.20685800      -1.27786400
C        4.20900000       4.05011000      18.27026000      -1.36700500       2.21741000      -3.20501800
O        1.40300000       0.81002000      19.42826000       1.65627900      -1.84594900       2.73934600
O        4.20900000       7.29020000      19.88626000       0.00161900       0.00939900      -0.28721500
O        5.61200000       2.43007000      19.65726000       1.08354300       1.31172900       0.30732400
O        4.20900000       0.81002000      19.42826000      -1.59976700      -1.75420900       2.81160700
O        4.20900000       4.05011000      19.42826000      -1.67999100       1.85807000       2.98434900
Pt       7.01499000       7.29020000      16.87326000      -0.00294600      -0.35471500      -0.37652200
Pt       5.61200000       6.48017000      14.58218000      -0.11850500       0.07740900      -0.27327900
Pt       5.61200000       4.86013000      16.87326000       0.15876400       0.30201100       0.38489400
Pt       2.80600000       4.86013000      16.87326000      -0.09141700      -0.01295700       0.48378900
Pt       4.20900000       2.43007000      16.87326000       0.10380400       0.16985200       0.88689200
Pt       1.40300000       2.43007000      16.87326000      -0.55340400       0.42111800       1.31217700
Pt       2.80600000       0.00000000      16.87326000      -0.16009400      -0.10171100       0.81594800
Pt       0.00000000       0.00000000      16.87326000       0.17655100      -0.65749000       0.35483000
Pt       7.01499000       8.91024000      14.58218000      -0.02939500       0.07111800      -0.16937200
Pt       9.82099000       8.91024000      14.58218000       0.02621700      -0.10701500      -0.25003100
Pt       4.20900000       7.29020000      16.87326000       0.02468000      -0.10795500       0.66155500
Pt       0.00000000       0.00000000      10.00000000      -0.00534400      -0.04699600      -0.17774800
Pt       7.01499000       4.05011000      14.58218000       0.04439400      -0.08514100      -0.14355000
Pt       2.80600000       0.00000000      10.00000000       0.00879300      -0.00397300      -0.07760600
Pt       1.40300000       2.43007000      10.00000000      -0.01021300       0.02051000      -0.08936800
Pt       4.20900000       2.43007000      10.00000000       0.00000600       0.01869500      -0.13316700
Pt       2.80600000       4.86013000      10.00000000       0.04960900       0.01899700      -0.11300700
Pt       5.61200000       4.86013000      10.00000000      -0.04892200       0.00396500      -0.10316100
Pt       4.20900000       7.29020000      10.00000000       0.00022600      -0.01570400      -0.23994800
Pt       7.01499000       7.29020000      10.00000000       0.00564600       0.01429100      -0.20058800
Pt       1.40300000       0.81002000      12.29109000       0.00348600      -0.09687500       0.16410100
Pt       4.20900000       0.81002000      12.29109000       0.06394500       0.00085300       0.10058600
Pt       2.80600000       3.24009000      12.29109000      -0.00331900      -0.00740300       0.13776500
Pt       5.61200000       3.24009000      12.29109000      -0.02154200      -0.01050000       0.13364000
Pt       4.20900000       5.67015000      12.29109000       0.00879100       0.14391200       0.21130200
Pt       7.01499000       5.67015000      12.29109000      -0.00559300       0.02253000       0.02911200
Pt       5.61200000       8.10022000      12.29109000       0.01106400      -0.04798600      -0.01945700
Pt       8.41799000       8.10022000      12.29109000      -0.02356400      -0.06687500       0.01436700
Pt       5.61200000       1.62004000      14.58218000      -0.10228300      -0.02661700      -1.12280600
Pt       2.80600000       1.62004000      14.58218000       0.09610500       0.39637900      -0.28934400
Pt       4.20900000       4.05011000      14.58218000      -0.01645900      -0.18047300      -0.49931400
Pt       8.41799000       6.48017000      14.58218000       0.11817800       0.07254700      -0.25933700
42
Lattice="5.611995395 0.0 0.0 5.611995395 9.720261156 0.0 0.0 0.0 29.886262579" Properties=species:S:1:pos:R:3:forces:R:3 energy=-262.87267892 pbc="T T T"
C        4.20900000       0.81002000      18.27026000       1.28773800      -1.81499100      -3.49918000
C        2.80600000       2.43007000      18.49926000      -2.14634300       0.92252900      -2.53252400
C        2.80600000       4.86013000      18.72826000      -0.02681900      -0.11170400       0.73745100
C        5.61200000       7.29020000      18.49926000      -0.00302700      -0.00994700      -2.95287500
C        8.41799000       7.29020000      18.49926000      -0.00314700       1.29794500      -2.89182000
O        2.80600000       2.43007000      19.65726000      -1.13557500       0.59867200       1.11024700
O        4.20900000       0.81002000      19.42826000       1.66299700      -1.88404400       3.11528400
O        5.61200000       7.29020000      19.65726000       0.00146900      -0.01437000       1.28980700
O        2.80600000       4.86013000      19.88626000       0.00970300       0.03262800      -0.31261500
O        8.41799000       7.29020000      19.65726000      -0.00009900       0.75726800       1.12565500
Pt       7.01499000       7.29020000      16.87326000      -0.14851800       0.08559300       2.32826300
Pt       5.61200000       6.48017000      14.58218000      -0.00451300       0.24016200      -0.19893200
Pt       5.61200000       4.86013000      16.87326000      -0.00120500      -0.44451000      -0.39916200
Pt       2.80600000       4.86013000      16.87326000      -0.02040400      -0.17290200       0.41274800
Pt       4.20900000       2.43007000      16.87326000       0.05528100       0.13447600       1.20689600
Pt       1.40300000       2.43007000      16.87326000       0.44371800      -0.20684800       1.13881000
Pt       2.80600000       0.00000000      16.87326000      -0.11303000       0.14242600       0.23051500
Pt       0.00000000       0.00000000      16.87326000       0.05072500       0.57250100       0.48560000
Pt       7.01499000       8.91024000      14.58218000       0.03980600       0.14634100      -0.18586000
Pt       9.82099000       8.91024000      14.58218000      -0.02687200      -0.10405900      -0.59371300
Pt       4.20900000       7.29020000      16.87326000       0.12821400      -0.23556100       2.27139900
Pt       0.00000000       0.00000000      10.00000000      -0.00935700       0.01262100      -0.08171800
Pt       7.01499000       4.05011000      14.58218000       0.08688100       0.12458500      -0.23394800
Pt       2.80600000       0.00000000      10.00000000      -0.00184300      -0.00482700      -0.19310200
Pt       1.40300000       2.43007000      10.00000000       0.03124800       0.01041300      -0.14737900
Pt       4.20900000       2.43007000      10.00000000      -0.03394300      -0.00990100      -0.16380000
Pt       2.80600000       4.86013000      10.00000000       0.00790900      -0.03414200      -0.15784200
Pt       5.61200000       4.86013000      10.00000000      -0.01356200      -0.03699100      -0.13585600
Pt       4.20900000       7.29020000      10.00000000      -0.00726800      -0.00629400      -0.17208300
Pt       7.01499000       7.29020000      10.00000000      -0.00295900       0.02247500      -0.06339800
Pt       1.40300000       0.81002000      12.29109000       0.02597500      -0.06199000       0.04488000
Pt       4.20900000       0.81002000      12.29109000      -0.05567700       0.00827000       0.06199900
Pt       2.80600000       3.24009000      12.29109000       0.01593300       0.02960200       0.24032100
Pt       5.61200000       3.24009000      12.29109000       0.00191500      -0.03187400       0.09401100
Pt       4.20900000       5.67015000      12.29109000       0.02243800       0.02676700       0.06909800
Pt       7.01499000       5.67015000      12.29109000      -0.03005000      -0.05308700       0.05831700
Pt       5.61200000       8.10022000      12.29109000      -0.05058300      -0.05934800       0.15183000
Pt       8.41799000       8.10022000      12.29109000       0.06110400       0.02852100       0.08695300
Pt       5.61200000       1.62004000      14.58218000       0.06889400       0.34074000      -0.09664200
Pt       2.80600000       1.62004000      14.58218000      -0.09151700      -0.14300100      -0.79252500
Pt       4.20900000       4.05011000      14.58218000      -0.09443000      -0.05339000      -0.11152200
Pt       8.41799000       6.48017000      14.58218000       0.01879400      -0.04075100      -0.34358700
42
Lattice="5.611995395 0.0 0.0 5.611995395 9.720261156 0.0 0.0 0.0 29.886262579" Properties=species:S:1:pos:R:3:forces:R:3 energy=-265.55224857 pbc="T T T"
C        2.80600000       2.43007000      18.49926000      -0.00000000      -1.08662600      -3.41271100
C        2.80600000       4.86013000      18.72826000      -0.00000000       1.01842000       0.43054900
C        8.41799000       8.10022000      18.27026000      -0.00000000      -0.02191700      -3.95747800
C        0.00000000       0.00000000      18.72826000      -0.00000000       0.05559500       0.27772500
C        5.61200000       4.86013000      18.72826000      -0.00000000       0.04514100       0.09399100
O        2.80600000       4.86013000      19.88626000      -0.00000000       0.69664100      -0.18624300
O        2.80600000       2.43007000      19.65726000      -0.00000000      -0.81492900       1.74912200
O        0.00000000       0.00000000      19.88626000      -0.00000000       0.02035700      -0.17478000
O        8.41799000       8.10022000      19.42826000      -0.00000000       0.00448900       3.54423500
O        5.61200000       4.86013000      19.88626000      -0.00000000      -0.01434900      -0.00007300
Pt       7.01499000       7.29020000      16.87326000      -0.02882000       0.19597200       0.24523000
Pt       5.61200000       6.48017000      14.58218000      -0.00000000       0.00418500       0.07900800
Pt       5.61200000       4.86013000      16.87326000       0.00000000       0.19407700       0.64999800
Pt       2.80600000       4.86013000      16.87326000      -0.00000000       0.31675500       0.45574100
Pt       4.20900000       2.43007000      16.87326000      -0.57899800      -0.43336300       0.93159700
Pt       1.40300000       2.43007000      16.87326000       0.57899800      -0.43336300       0.93159700
Pt       2.80600000       0.00000000      16.87326000       0.00000000      -0.19552100       0.30943600
Pt       0.00000000       0.00000000      16.87326000      -0.00000000       0.18721700       0.74193500
Pt       7.01499000       8.91024000      14.58218000      -0.17869900       0.10338800      -0.50294000
Pt       9.82099000       8.91024000      14.58218000       0.17869900       0.10338800      -0.50294000
Pt       4.20900000       7.29020000      16.87326000       0.02882000       0.19597200       0.24523000
Pt       0.00000000       0.00000000      10.00000000      -0.00000000       0.06491600      -0.15188500
Pt       7.01499000       4.05011000      14.58218000      -0.02750800       0.16030600      -0.38911300
Pt       2.80600000       0.00000000      10.00000000      -0.00000000      -0.00181200      -0.22613500
Pt       1.40300000       2.43007000      10.00000000       0.01011500      -0.04908400      -0.13513300
Pt       4.20900000       2.43007000      10.00000000      -0.01011500      -0.04908400      -0.13513300
Pt       2.80600000       4.86013000      10.00000000      -0.00000000      -0.02508700      -0.20019900
Pt       5.61200000       4.86013000      10.00000000      -0.00000000       0.04754900      -0.11231400
Pt       4.20900000       7.29020000      10.00000000      -0.00085600      -0.00475600      -0.09337100
Pt       7.01499000       7.29020000      10.00000000       0.00085600      -0.00475600      -0.09337100
Pt       1.40300000       0.81002000      12.29109000       0.06429100      -0.00179600       0.12011500
Pt       4.20900000       0.81002000      12.29109000      -0.06429100      -0.00179600       0.12011500
Pt       2.80600000       3.24009000      12.29109000      -0.00000000       0.06700000       0.02064700
Pt       5.61200000       3.24009000      12.29109000      -0.00000000      -0.01429500       0.10559800
Pt       4.20900000       5.67015000      12.29109000      -0.05209500      -0.02823200       0.10171800
Pt       7.01499000       5.67015000      12.29109000       0.05209500      -0.02823200       0.10171800
Pt       5.61200000       8.10022000      12.29109000      -0.00000000      -0.01977000       0.11207900
Pt       8.41799000       8.10022000      12.29109000      -0.00000000       0.01967100       0.02119600
Pt       5.61200000       1.62004000      14.58218000       0.00000000       0.07934700       0.18332900
Pt       2.80600000       1.62004000      14.58218000      -0.00000000      -0.23985800      -0.45972600
Pt       4.20900000       4.05011000      14.58218000       0.02750800       0.16030600      -0.38911300
Pt       8.41799000       6.48017000      14.58218000       0.00000000      -0.27206800      -0.44925500
42
Lattice="5.611995395 0.0 0.0 5.611995395 9.720261156 0.0 0.0 0.0 29.657262579" Properties=species:S:1:pos:R:3:forces:R:3 energy=-262.42631718 pbc="T T T"
C        5.61200000       2.43007000      18.49926000       0.20437700       0.76619600      -2.41962300
C        2.80600000       1.62004000      18.27026000      -1.32336900       1.58697200      -2.91680300
C        4.20900000       0.00000000      18.49926000       1.60502700      -1.96481300      -2.27346500
C        5.61200000       7.29020000      18.49926000       2.43294600       1.69020200      -2.31694400
C        4.20900000       5.67015000      18.27026000      -1.39893600      -1.87347600      -3.35769800
O        2.80600000       1.62004000      19.42826000      -1.62915300       1.78278200       2.69192400
O        5.61200000       2.43007000      19.65726000       0.04389100       0.03957700       1.04752100
O        5.61200000       7.29020000      19.65726000       1.19260500       1.29781600       1.00682600
O        4.20900000       0.00000000      19.65726000       1.06547100      -1.42062800       0.95403800
O        4.20900000       5.67015000      19.42826000      -1.64514900      -1.87872100       2.98425000
Pt       7.01499000       7.29020000      16.87326000      -0.67479100      -0.06187600       1.19252200
Pt       5.61200000       6.48017000      14.58218000       0.06417400      -0.10480600      -0.89532200
Pt       5.61200000       4.86013000      16.87326000       0.16109600      -0.03725900       0.27316100
Pt       2.80600000       4.86013000      16.87326000       0.00461400       0.32519500       0.43685800
Pt       4.20900000       2.43007000      16.87326000       0.40101000       0.26460700       1.23957900
Pt       1.40300000       2.43007000      16.87326000      -0.38573300       0.03954600       1.58716100
Pt       2.80600000       0.00000000      16.87326000       0.25517400      -0.47109500       1.35336500
Pt       0.00000000       0.00000000      16.87326000      -0.55977600      -0.35339800       0.96442600
Pt       7.01499000       8.91024000      14.58218000       0.08350600       0.29704700       0.14169500
Pt       9.82099000       8.91024000      14.58218000      -0.07224900      -0.26847300      -0.57596000
Pt       4.20900000       7.29020000      16.87326000       0.14232800      -0.07039800       1.04927200
Pt       0.00000000       0.00000000      10.00000000      -0.02062000      -0.04290600      -0.13235600
Pt       7.01499000       4.05011000      14.58218000      -0.01797200       0.10901200      -0.10923700