52
Lattice="8.417993093 0.0 0.0 5.611995395 9.720261156 0.0 0.0 0.0 29.886262579" Properties=species:S:1:pos:R:3:forces:R:3 energy=-310.65850377 pbc="T T T"
C        4.20900000       5.67015000      18.27026000       0.01254200       0.02802600      -3.47567500
C        1.40300000       2.43007000      18.72826000      -0.01201100      -0.02765200       0.24337600
O        4.20900000       5.67015000      19.42826000      -0.00566900      -0.01361200       3.18591800
O        1.40300000       2.43007000      19.88626000       0.00447400       0.00803100      -0.11188900
Pt       9.82099000       7.29020000      16.87326000      -0.34704100       0.20334600      -0.02603500
Pt       9.82099000       4.05011000      14.58218000       0.07138400      -0.09952700      -0.11210400
Pt       4.20900000       4.05011000      14.58218000       0.03015500      -0.07802500      -0.41201800
Pt       7.01499000       4.05011000      14.58218000      -0.10353600       0.07087300      -0.13070300
Pt      11.22399000       6.48017000      14.58218000      -0.10542900       0.04243000      -0.45146400
Pt       5.61200000       6.48017000      14.58218000       0.08747900       0.04072700      -0.43760000
Pt       8.41799000       6.48017000      14.58218000      -0.00332200       0.00698600      -0.22374600
Pt      12.62699000       8.91024000      14.58218000       0.00959900      -0.07458900      -0.14261100
Pt       7.01499000       8.91024000      14.58218000       0.01811700      -0.02550400      -0.18737900
Pt       9.82099000       8.91024000      14.58218000      -0.03935400       0.02372900      -0.22989500
Pt       0.00000000       0.00000000      16.87326000      -0.22072400      -0.37732800      -0.06845100
Pt       5.61200000       1.62004000      14.58218000      -0.01546500      -0.00670500      -0.25820100
Pt       1.40300000       2.43007000      16.87326000       0.01529900       0.02534300       0.91847000
Pt       4.20900000       2.43007000      16.87326000       0.43159900      -0.40309400      -0.14545500
Pt       7.01499000       2.43007000      16.87326000      -0.44059300       0.00770200      -0.08469000
Pt       2.80600000       4.86013000      16.87326000      -0.08586500       0.21156600       0.53005500
Pt       5.61200000       4.86013000      16.87326000       0.30170900      -0.17310900       0.61602700
Pt       8.41799000       4.86013000      16.87326000      -0.19053700       0.34967200      -0.12506100
Pt       4.20900000       7.29020000      16.87326000      -0.00243300       0.33828400       0.66381100
Pt       7.01499000       7.29020000      16.87326000       0.31818200       0.18466400      -0.05591600
Pt       2.80600000       0.00000000      16.87326000       0.21164500      -0.35523000      -0.05216500
Pt       5.61200000       0.00000000      16.87326000       0.01717000      -0.00197500       0.04162900
Pt       0.00000000       0.00000000      10.00000000       0.00035200       0.00848600      -0.03702100
Pt      11.22399000       8.10022000      12.29109000       0.01521200       0.04946200       0.19607700
Pt       2.80600000       0.00000000      10.00000000      -0.00484500      -0.00652700      -0.07014100
Pt       5.61200000       0.00000000      10.00000000       0.01877600      -0.05692000      -0.18593600
Pt       1.40300000       2.43007000      10.00000000       0.02316400      -0.02148400      -0.10989400
Pt       4.20900000       2.43007000      10.00000000       0.01364500      -0.00691600      -0.06874700
Pt       7.01499000       2.43007000      10.00000000      -0.03520200       0.00363700      -0.14243400
Pt       2.80600000       4.86013000      10.00000000       0.01007200       0.01252800      -0.05498500
Pt       5.61200000       4.86013000      10.00000000      -0.00498200      -0.00852900      -0.05902100
Pt       8.41799000       4.86013000      10.00000000       0.00158800      -0.00643700      -0.02452500
Pt       4.20900000       7.29020000      10.00000000      -0.02200100      -0.00837900      -0.05643700
Pt       7.01499000       7.29020000      10.00000000       0.02119800       0.01342000      -0.08531200
Pt       8.41799000       1.62004000      14.58218000       0.09475700       0.08741600      -0.22452000
Pt       9.82099000       7.29020000      10.00000000       0.00747700       0.06846800      -0.12715200
Pt       4.20900000       0.81002000      12.29109000       0.10190400      -0.03269200       0.10345200
Pt       7.01499000       0.81002000      12.29109000      -0.09288300       0.06924900       0.01170400
Pt       2.80600000       3.24009000      12.29109000      -0.07204900      -0.00015400       0.22498700
Pt       5.61200000       3.24009000      12.29109000       0.05914200      -0.02272100       0.18222300
Pt       8.41799000       3.24009000      12.29109000      -0.00489000      -0.10524200       0.06674400
Pt       4.20900000       5.67015000      12.29109000      -0.00085500      -0.01528800       0.23506300
Pt       7.01499000       5.67015000      12.29109000       0.02374000      -0.04008400       0.17571900
Pt       9.82099000       5.67015000      12.29109000      -0.01928900       0.03853300       0.07877700
Pt       5.61200000       8.10022000      12.29109000      -0.02737300       0.01896400       0.18338200
Pt       8.41799000       8.10022000      12.29109000       0.02761400      -0.02605700       0.20934100
Pt       1.40300000       0.81002000      12.29109000      -0.01060100       0.05037800       0.24736700
Pt       2.80600000       1.62004000      14.58218000      -0.08104700       0.03185700      -0.13693700
52
Lattice="8.417993093 0.0 0.0 5.611995395 9.720261156 0.0 0.0 0.0 29.657262579" Properties=species:S:1:pos:R:3:forces:R:3 energy=-310.56410681 pbc="T T T"
C        7.01499000       0.00000000      18.49926000      -0.00410300       0.05550700      -3.06924200
C        2.80600000       1.62004000      18.27026000      -0.00341100      -0.00395800      -3.38410900
O        7.01499000       0.00000000      19.65726000       0.00073200      -0.01667800       1.48388100
O        2.80600000       1.62004000      19.42826000       0.00181800       0.00471700       3.07494400
Pt       9.82099000       7.29020000      16.87326000      -0.11524600      -0.11877100       0.01202000
Pt       9.82099000       4.05011000      14.58218000      -0.00975400      -0.01183300      -0.25926200
Pt       4.20900000       4.05011000      14.58218000       0.01686000      -0.00225500      -0.23762900
Pt       7.01499000       4.05011000      14.58218000      -0.00446200      -0.02919500      -0.24351600
Pt      11.22399000       6.48017000      14.58218000       0.02159600      -0.01071800      -0.27550100
Pt       5.61200000       6.48017000      14.58218000      -0.02345300       0.02927200      -0.28207000
Pt       8.41799000       6.48017000      14.58218000       0.00152100      -0.00229300      -0.31269000
Pt      12.62699000       8.91024000      14.58218000      -0.00644800      -0.09172300      -0.59818900
Pt       7.01499000       8.91024000      14.58218000      -0.10552800       0.05577500      -0.04483500
Pt       9.82099000       8.91024000      14.58218000       0.11165100       0.08892900      -0.06912400
Pt       0.00000000       0.00000000      16.87326000      -0.52088100      -0.26138100       1.25976500
Pt       5.61200000       1.62004000      14.58218000      -0.01991400       0.01277400      -0.31941600
Pt       1.40300000       2.43007000      16.87326000      -0.09629300       0.24003300       0.61302900
Pt       4.20900000       2.43007000      16.87326000       0.09810800       0.24225100       0.62450600
Pt       7.01499000       2.43007000      16.87326000      -0.00900500       0.57158300      -0.07694400
Pt       2.80600000       4.86013000      16.87326000       0.00007400       0.36820500      -0.07145000
Pt       5.61200000       4.86013000      16.87326000       0.00141100       0.02218600       0.06578900
Pt       8.41799000       4.86013000      16.87326000       0.00152900       0.00554600       0.09165600
Pt       4.20900000       7.29020000      16.87326000       0.02125700      -0.55024100       0.05015300
Pt       7.01499000       7.29020000      16.87326000       0.09534400      -0.11715300      -0.01096000
Pt       2.80600000       0.00000000      16.87326000      -0.00223600      -0.26172500       0.58450500
Pt       5.61200000       0.00000000      16.87326000       0.52372500      -0.26207700       1.27619500
Pt       0.00000000       0.00000000      10.00000000       0.01321100      -0.02914200      -0.05964900
Pt      11.22399000       8.10022000      12.29109000       0.00255300      -0.05750900       0.14962900
Pt       2.80600000       0.00000000      10.00000000       0.00332000      -0.00471100      -0.02818200
Pt       5.61200000       0.00000000      10.00000000      -0.01535000      -0.02875500      -0.06672400
Pt       1.40300000       2.43007000      10.00000000       0.01127400       0.01307000      -0.05562000
Pt       4.20900000       2.43007000      10.00000000      -0.01137800       0.00376100      -0.06465900
Pt       7.01499000       2.43007000      10.00000000      -0.00208100       0.00579100      -0.02823700
Pt       2.80600000       4.86013000      10.00000000       0.00134600       0.00352000      -0.04738200
Pt       5.61200000       4.86013000      10.00000000       0.01420400       0.03699900      -0.06138000
Pt       8.41799000       4.86013000      10.00000000      -0.01476800       0.03208100      -0.06398000
Pt       4.20900000       7.29020000      10.00000000      -0.01359400       0.00440600      -0.12680000
Pt       7.01499000       7.29020000      10.00000000      -0.03876800      -0.02620600      -0.11011100
Pt       8.41799000       1.62004000      14.58218000       0.01331100       0.02724600      -0.31947800
Pt       9.82099000       7.29020000      10.00000000       0.05376100       0.01018400      -0.12859200
Pt       4.20900000       0.81002000      12.29109000       0.04325900      -0.03006700       0.22095100
Pt       7.01499000       0.81002000      12.29109000       0.00368000      -0.02083800       0.11070100
Pt       2.80600000       3.24009000      12.29109000      -0.00412100       0.03580300       0.19983200
Pt       5.61200000       3.24009000      12.29109000      -0.01639600       0.03292100       0.16207200
Pt       8.41799000       3.24009000      12.29109000       0.01869200       0.03001000       0.15008500
Pt       4.20900000       5.67015000      12.29109000       0.00933000       0.05322500       0.14517600
Pt       7.01499000       5.67015000      12.29109000       0.02083000       0.00522700       0.19715800
Pt       9.82099000       5.67015000      12.29109000      -0.02832300       0.07523100       0.13219200
Pt       5.61200000       8.10022000      12.29109000       0.00031800      -0.03294200       0.12806000
Pt       8.41799000       8.10022000      12.29109000      -0.00388100      -0.07811300       0.06390700
Pt       1.40300000       0.81002000      12.29109000      -0.04187100      -0.03035600       0.22312400
Pt       2.80600000       1.62004000      14.58218000       0.00654900       0.01238500      -0.60359600
52
Lattice="8.417993093 0.0 0.0 5.611995395 9.720261156 0.0 0.0 0.0 29.657262579" Properties=species:S:1:pos:R:3:forces:R:3 energy=-310.56660362 pbc="T T T"
C        7.01499000       4.05011000      18.27026000      -0.01279400       0.01814000      -3.39666800
C        4.20900000       0.00000000      18.49926000      -0.01032900       0.05112900      -3.05230100
O        7.01499000       4.05011000      19.42826000       0.00299200      -0.00805700       3.07788400
O        4.20900000       0.00000000      19.65726000       0.00048300      -0.01494100       1.48939400
Pt       9.82099000       7.29020000      16.87326000       0.02700100      -0.49451900      -0.02443800
Pt       9.82099000       4.05011000      14.58218000       0.02163400      -0.00334000      -0.25297000
Pt       4.20900000       4.05011000      14.58218000      -0.01623600      -0.00583100      -0.22765300
Pt       7.01499000       4.05011000      14.58218000       0.00665700       0.01353300      -0.60754400
Pt      11.22399000       6.48017000      14.58218000      -0.01471900       0.01054100      -0.25705500
Pt       5.61200000       6.48017000      14.58218000      -0.02127200      -0.00975500      -0.30509400
Pt       8.41799000       6.48017000      14.58218000       0.03358100      -0.01369200      -0.23426100
Pt      12.62699000       8.91024000      14.58218000      -0.08467100       0.06970700      -0.06689300
Pt       7.01499000       8.91024000      14.58218000       0.10446100       0.10609100      -0.07537400
Pt       9.82099000       8.91024000      14.58218000      -0.00594500      -0.08498500      -0.58414100
Pt       0.00000000       0.00000000      16.87326000      -0.00160700      -0.05148700       0.00588100
Pt       5.61200000       1.62004000      14.58218000       0.04223200      -0.01840300      -0.31104300
Pt       1.40300000       2.43007000      16.87326000       0.19911000      -0.04528300      -0.09480300
Pt       4.20900000       2.43007000      16.87326000      -0.29454900       0.38083900      -0.13154500
Pt       7.01499000       2.43007000      16.87326000       0.12077300      -0.12246900       0.60665900
Pt       2.80600000       4.86013000      16.87326000      -0.01097600      -0.01999700       0.05442100
Pt       5.61200000       4.86013000      16.87326000      -0.20624400       0.11031600       0.67756500
Pt       8.41799000       4.86013000      16.87326000       0.19548200       0.13519400       0.66587200
Pt       4.20900000       7.29020000      16.87326000       0.10352500      -0.03653800      -0.00086800
Pt       7.01499000       7.29020000      16.87326000      -0.10711100       0.26453800      -0.10956700
Pt       2.80600000       0.00000000      16.87326000       0.22309500      -0.09721000       1.40342200
Pt       5.61200000       0.00000000      16.87326000      -0.24672800      -0.13853700       1.32211000
Pt       0.00000000       0.00000000      10.00000000       0.01267600       0.03133500      -0.04726200
Pt      11.22399000       8.10022000      12.29109000       0.04523600      -0.00526000       0.17658600
Pt       2.80600000       0.00000000      10.00000000       0.00158300       0.00732000      -0.10364300
Pt       5.61200000       0.00000000      10.00000000      -0.01719900      -0.00544100      -0.05828500
Pt       1.40300000       2.43007000      10.00000000      -0.03897900      -0.02607000      -0.06923900
Pt       4.20900000       2.43007000      10.00000000       0.02433400      -0.02025700      -0.04981500
Pt       7.01499000       2.43007000      10.00000000       0.01915300       0.00636500      -0.07053100
Pt       2.80600000       4.86013000      10.00000000       0.01579700       0.04085100      -0.05915000
Pt       5.61200000       4.86013000      10.00000000      -0.00537400       0.03266500      -0.05895400
Pt       8.41799000       4.86013000      10.00000000      -0.00545600      -0.00367600      -0.05753000
Pt       4.20900000       7.29020000      10.00000000      -0.03658200      -0.03854900      -0.10570600
Pt       7.01499000       7.29020000      10.00000000       0.04124300      -0.03319600      -0.08926600
Pt       8.41799000       1.62004000      14.58218000       0.00018900       0.01116800      -0.25605400
Pt       9.82099000       7.29020000      10.00000000       0.00202600      -0.00930100      -0.07633800
Pt       4.20900000       0.81002000      12.29109000      -0.05140000      -0.00681500       0.18362400
Pt       7.01499000       0.81002000      12.29109000      -0.00956400      -0.00324400       0.25104500
Pt       2.80600000       3.24009000      12.29109000      -0.01430400       0.00697300      -0.00058600
Pt       5.61200000       3.24009000      12.29109000      -0.02682300       0.01191800       0.13576300
Pt       8.41799000       3.24009000      12.29109000       0.03225300      -0.02263200       0.20047800
Pt       4.20900000       5.67015000      12.29109000       0.03143100      -0.01145300       0.23144000
Pt       7.01499000       5.67015000      12.29109000      -0.02133900       0.05363600       0.19332500
Pt       9.82099000       5.67015000      12.29109000      -0.01248800      -0.00692300       0.22865000
Pt       5.61200000       8.10022000      12.29109000      -0.01546900      -0.02695200      -0.02163900
Pt       8.41799000       8.10022000      12.29109000      -0.03081400       0.04847000       0.12346400
Pt       1.40300000       0.81002000      12.29109000       0.05960500      -0.04812200       0.17960200
Pt       2.80600000       1.62004000      14.58218000      -0.04758100       0.02220700      -0.35097300
52
Lattice="8.417993093 0.0 0.0 5.611995395 9.720261156 0.0 0.0 0.0 29.428262579" Properties=species:S:1:pos:R:3:forces:R:3 energy=-310.60524076 pbc="T T T"
C        7.01499000       4.05011000      18.27026000      -0.00694100       0.21876200      -3.09163500
C        7.01499000       0.81002000      18.27026000      -0.00034800      -0.21843500      -3.13230800
O        7.01499000       4.05011000      19.42826000       0.00208200       0.06504100       2.99125500
O        7.01499000       0.81002000      19.42826000       0.00183400      -0.06432200       3.01283700
Pt       9.82099000       7.29020000      16.87326000      -0.00266300       0.03039600       0.00925200
Pt       9.82099000       4.05011000      14.58218000       0.01996600       0.01299500      -0.21242200
Pt       4.20900000       4.05011000      14.58218000      -0.02154300       0.01186500      -0.20759000
Pt       7.01499000       4.05011000      14.58218000      -0.00609900      -0.10175400      -0.48465400
Pt      11.22399000       6.48017000      14.58218000       0.01781200      -0.01360400      -0.23672700
Pt       5.61200000       6.48017000      14.58218000      -0.01951500      -0.04383100      -0.24798500
Pt       8.41799000       6.48017000      14.58218000       0.00505100       0.03183400      -0.28905600
Pt      12.62699000       8.91024000      14.58218000       0.02083600      -0.10370100      -0.46818500
Pt       7.01499000       8.91024000      14.58218000      -0.08429400       0.05747500      -0.18306800
Pt       9.82099000       8.91024000      14.58218000       0.06609800       0.06623200      -0.18168000
Pt       0.00000000       0.00000000      16.87326000       0.28377200      -0.20435400       0.66886200
Pt       5.61200000       1.62004000      14.58218000      -0.06156100       0.01805400      -0.42766700
Pt       1.40300000       2.43007000      16.87326000       0.63394500       0.02371500      -0.15694600
Pt       4.20900000       2.43007000      16.87326000      -0.63482300       0.02087200      -0.15350600
Pt       7.01499000       2.43007000      16.87326000       0.00053300       0.12209000       0.70737100
Pt       2.80600000       4.86013000      16.87326000      -0.00979100      -0.00439200      -0.00012400
Pt       5.61200000       4.86013000      16.87326000      -0.18245800       0.12124100       0.63833800
Pt       8.41799000       4.86013000      16.87326000       0.19162100       0.13081200       0.63791400
Pt       4.20900000       7.29020000      16.87326000      -0.01319200      -0.34172200      -0.05997400
Pt       7.01499000       7.29020000      16.87326000       0.01268800       0.35149000      -0.09972100
Pt       2.80600000       0.00000000      16.87326000       0.02070100      -0.03313400       0.04848100
Pt       5.61200000       0.00000000      16.87326000      -0.30395300      -0.20630800       0.64463700
Pt       0.00000000       0.00000000      10.00000000       0.00482300       0.03049900      -0.10362600
Pt      11.22399000       8.10022000      12.29109000      -0.05763100       0.00318400       0.20355500
Pt       2.80600000       0.00000000      10.00000000      -0.01186000      -0.02084100      -0.10363500
Pt       5.61200000       0.00000000      10.00000000       0.00645500       0.01479900      -0.07452500
Pt       1.40300000       2.43007000      10.00000000      -0.01282900      -0.03099100      -0.09074000
Pt       4.20900000       2.43007000      10.00000000       0.01425300      -0.01699400      -0.07266000
Pt       7.01499000       2.43007000      10.00000000      -0.00143100      -0.00579500      -0.07415100
Pt       2.80600000       4.86013000      10.00000000      -0.00482700      -0.00304300      -0.05796400
Pt       5.61200000       4.86013000      10.00000000       0.00620500       0.01337000      -0.06919200
Pt       8.41799000       4.86013000      10.00000000      -0.00494300       0.00398900      -0.05674200
Pt       4.20900000       7.29020000      10.00000000       0.00644900       0.00605900      -0.09363700
Pt       7.01499000       7.29020000      10.00000000      -0.02059700       0.02089800      -0.14767900
Pt       8.41799000       1.62004000      14.58218000       0.07370300       0.02717700      -0.42941800
Pt       9.82099000       7.29020000      10.00000000       0.02004000      -0.02940600      -0.09501500
Pt       4.20900000       0.81002000      12.29109000      -0.06392400      -0.03604600       0.14823200
Pt       7.01499000       0.81002000      12.29109000      -0.00172200      -0.00046600       0.27789500
Pt       2.80600000       3.24009000      12.29109000       0.01429100      -0.02394500       0.09286100
Pt       5.61200000       3.24009000      12.29109000      -0.01809000       0.00748200       0.21595900
Pt       8.41799000       3.24009000      12.29109000       0.01051600       0.00475900       0.19230600
Pt       4.20900000       5.67015000      12.29109000       0.01305600       0.00217200       0.23995900
Pt       7.01499000       5.67015000      12.29109000       0.00784900       0.11741600       0.12208500
Pt       9.82099000       5.67015000      12.29109000      -0.01860900       0.01744400       0.24069000
Pt       5.61200000       8.10022000      12.29109000       0.04209800       0.02493100       0.14243800
Pt       8.41799000       8.10022000      12.29109000       0.00656300      -0.04768700      -0.00529700
Pt       1.40300000       0.81002000      12.29109000       0.07062100      -0.06939500       0.14482000
Pt       2.80600000       1.62004000      14.58218000      -0.01021700       0.04311300      -0.27221800
52
Lattice="8.417993093 0.0 0.0 5.611995395 9.720261156 0.0 0.0 0.0 29.886262579" Properties=species:S:1:pos:R:3:forces:R:3 energy=-310.47972412 pbc="T T T"
C        1.40300000       0.00000000      18.49926000      -0.00374900       0.04498700      -3.17703500
C        8.41799000       4.86013000      18.72826000      -0.00217500      -0.00948000       0.16529800
O        1.40300000       0.00000000      19.65726000       0.00168000      -0.01369600       1.60383100
O        8.41799000       4.86013000      19.88626000       0.00104900       0.00249300      -0.06989100
Pt       9.82099000       7.29020000      16.87326000       0.33478700       0.32710100      -0.13259400
Pt       9.82099000       4.05011000      14.58218000      -0.11519400       0.03117200      -0.15984500
Pt       4.20900000       4.05011000      14.58218000      -0.00443500       0.01979700      -0.24465300
Pt       7.01499000       4.05011000      14.58218000       0.11802900       0.06340400      -0.15469700
Pt      11.22399000       6.48017000      14.58218000       0.01459600       0.02080200      -0.24963800
Pt       5.61200000       6.48017000      14.58218000      -0.00058900      -0.00463700      -0.18330700
Pt       8.41799000       6.48017000      14.58218000      -0.02212100      -0.15662900      -0.16028200
Pt      12.62699000       8.91024000      14.58218000       0.10409800       0.10595500      -0.03364900
Pt       7.01499000       8.91024000      14.58218000       0.01028200      -0.10900600      -0.54946200
Pt       9.82099000       8.91024000      14.58218000      -0.11865100       0.09262100      -0.03334800
Pt       0.00000000       0.00000000      16.87326000       0.23096100      -0.11055200       1.33788200
Pt       5.61200000       1.62004000      14.58218000       0.01265000       0.03965200      -0.23676900
Pt       1.40300000       2.43007000      16.87326000       0.22291500       0.19022200      -0.12404500
Pt       4.20900000       2.43007000      16.87326000       0.11180700       0.12228800       0.00112400
Pt       7.01499000       2.43007000      16.87326000      -0.34896300      -0.27994100      -0.10533000
Pt       2.80600000       4.86013000      16.87326000       0.43533200      -0.03428700       0.00427100
Pt       5.61200000       4.86013000      16.87326000      -0.43750000       0.01971500      -0.04804700
Pt       8.41799000       4.86013000      16.87326000       0.00785000       0.00557600       0.97370300
Pt       4.20900000       7.29020000      16.87326000      -0.12921600      -0.07795300      -0.03058600
Pt       7.01499000       7.29020000      16.87326000      -0.21162300      -0.17947900      -0.12730300
Pt       2.80600000       0.00000000      16.87326000      -0.24080300      -0.05284800       1.35864700
Pt       5.61200000       0.00000000      16.87326000       0.02002200      -0.02106200       0.00768600
Pt       0.00000000       0.00000000      10.00000000       0.02008000       0.01663400      -0.08308600
Pt      11.22399000       8.10022000      12.29109000       0.00539200      -0.10049000       0.04175300
Pt       2.80600000       0.00000000      10.00000000       0.00455700       0.06275000      -0.13441200
Pt       5.61200000       0.00000000      10.00000000      -0.02586300       0.00134300      -0.01831800
Pt       1.40300000       2.43007000      10.00000000      -0.00444600      -0.00560500      -0.05558000
Pt       4.20900000       2.43007000      10.00000000       0.01300300      -0.07711800      -0.21029400
Pt       7.01499000       2.43007000      10.00000000      -0.01256500       0.00836000      -0.06179400
Pt       2.80600000       4.86013000      10.00000000      -0.00748700       0.01683800      -0.06640500
Pt       5.61200000       4.86013000      10.00000000      -0.01323800      -0.00245400      -0.04760800
Pt       8.41799000       4.86013000      10.00000000       0.01642100       0.03435000      -0.10482000
Pt       4.20900000       7.29020000      10.00000000       0.03914900      -0.02960200      -0.10215200
Pt       7.01499000       7.29020000      10.00000000      -0.00120400      -0.00398300      -0.08101700
Pt       8.41799000       1.62004000      14.58218000      -0.02521000      -0.03230700      -0.26629400
Pt       9.82099000       7.29020000      10.00000000      -0.03167900      -0.02638300      -0.10925900
Pt       4.20900000       0.81002000      12.29109000      -0.01576200       0.01476400       0.22715900
Pt       7.01499000       0.81002000      12.29109000       0.00080600       0.00016600       0.22935400
Pt       2.80600000       3.24009000      12.29109000       0.10959800      -0.00760900       0.03854800
Pt       5.61200000       3.24009000      12.29109000      -0.09347800      -0.04461100       0.10443300
Pt       8.41799000       3.24009000      12.29109000      -0.01145300       0.06516700       0.17960600
Pt       4.20900000       5.67015000      12.29109000      -0.00634300       0.03759600       0.20119500
Pt       7.01499000       5.67015000      12.29109000       0.00622700      -0.00609800       0.24322800
Pt       9.82099000       5.67015000      12.29109000       0.00511800       0.00020500       0.24292100
Pt       5.61200000       8.10022000      12.29109000      -0.05253400      -0.02444500       0.18904700
Pt       8.41799000       8.10022000      12.29109000       0.04663600       0.06070100       0.08424000
Pt       1.40300000       0.81002000      12.29109000       0.02943100      -0.02141300       0.23299400
Pt       2.80600000       1.62004000      14.58218000       0.01380500       0.02702600      -0.30540300
52
Lattice="8.417993093 0.0 0.0 5.611995395 9.720261156 0.0 0.0 0.0 29.886262579" Properties=species:S:1:pos:R:3:forces:R:3 energy=-310.54317097 pbc="T T T"
C        5.61200000       0.00000000      18.72826000      -0.00279400      -0.00948900       0.07135700
C        5.61200000       4.86013000      18.72826000       0.00436800      -0.00499900       0.08020100
O        5.61200000       0.00000000      19.88626000       0.00097900       0.00352700      -0.00601500
O        5.61200000       4.86013000      19.88626000      -0.00125000       0.00027200      -0.00343200
Pt       9.82099000       7.29020000      16.87326000      -0.23701000      -0.39503800      -0.07501400
Pt       9.82099000       4.05011000      14.58218000      -0.01282400       0.01895900      -0.24771400
Pt       4.20900000       4.05011000      14.58218000       0.12838100       0.05911800      -0.18219500
Pt       7.01499000       4.05011000      14.58218000      -0.13040600       0.06611900      -0.19105700
Pt      11.22399000       6.48017000      14.58218000      -0.01529700      -0.02320700      -0.17343400
Pt       5.61200000       6.48017000      14.58218000      -0.01969200      -0.13617800      -0.20858200
Pt       8.41799000       6.48017000      14.58218000       0.03761100       0.03990600      -0.22341600
Pt      12.62699000       8.91024000      14.58218000      -0.09581300       0.04092500      -0.18974500
Pt       7.01499000       8.91024000      14.58218000      -0.00658000       0.01110700      -0.25417400
Pt       9.82099000       8.91024000      14.58218000       0.12042700       0.07072800      -0.16526500
Pt       0.00000000       0.00000000      16.87326000       0.41884500       0.00659900      -0.02016000
Pt       5.61200000       1.62004000      14.58218000       0.00697000      -0.18190100      -0.15171100