22
Lattice="2.805997698 0.0 0.0 5.611995395 9.720261156 0.0 0.0 0.0 29.428262579" Properties=species:S:1:pos:R:3:forces:R:3 energy=-139.60411822 pbc="T T T"
C        2.80600000       1.62004000      18.27026000      -0.00000000      -1.33918300      -2.40852100
C        5.61200000       6.48017000      18.27026000       0.00000000       1.20658400      -2.26203100
C        4.20900000       4.05011000      18.27026000      -0.00000000       0.01192600      -1.94378100
O        4.20900000       4.05011000      19.42826000      -0.00000000      -0.00488400       2.25330800
O        2.80600000       1.62004000      19.42826000      -0.00000000      -0.16135900       2.49405800
O        5.61200000       6.48017000      19.42826000       0.00000000       0.11003800       2.46518800
Pt       4.20900000       7.29020000      16.87326000       0.00000000       0.38023300       0.72270200
Pt       2.80600000       4.86013000      16.87326000      -0.00000000      -0.02532400       0.47416100
Pt       1.40300000       2.43007000      16.87326000      -0.00000000      -0.17978700       0.49119100
Pt       0.00000000       0.00000000      16.87326000      -0.00000000       0.07112000       0.38378100
Pt       7.01499000       8.91024000      14.58218000      -0.00000000      -0.08084200      -0.26838500
Pt       0.00000000       0.00000000      10.00000000      -0.00000000       0.00420900      -0.17068100
Pt       2.80600000       1.62004000      14.58218000      -0.00000000       0.05155100      -0.66639200
Pt       5.61200000       8.10022000      12.29109000      -0.00000000       0.03552000       0.09447200
Pt       4.20900000       5.67015000      12.29109000      -0.00000000      -0.00714700       0.11380500
Pt       2.80600000       3.24009000      12.29109000      -0.00000000      -0.08820300       0.13123600
Pt       1.40300000       0.81002000      12.29109000      -0.00000000       0.00097600      -0.03819100
Pt       4.20900000       7.29020000      10.00000000       0.00000000       0.03316900      -0.13261800
Pt       2.80600000       4.86013000      10.00000000      -0.00000000      -0.04430600      -0.08930100
Pt       1.40300000       2.43007000      10.00000000      -0.00000000      -0.00855500      -0.18710600
Pt       4.20900000       4.05011000      14.58218000      -0.00000000       0.00660900      -0.70202700
Pt       5.61200000       6.48017000      14.58218000      -0.00000000       0.02765800      -0.75486800
22
Lattice="2.805997698 0.0 0.0 5.611995395 9.720261156 0.0 0.0 0.0 29.428262579" Properties=species:S:1:pos:R:3:forces:R:3 energy=-140.16205777 pbc="T T T"
C        4.20900000       5.67015000      18.27026000       0.00000000      -0.07217800      -2.50379800
C        7.01499000       8.91024000      18.27026000      -0.00000000      -1.01730200      -2.09451500
C        2.80600000       1.62004000      18.27026000      -0.00000000       1.14593000      -2.25702700
O        2.80600000       1.62004000      19.42826000      -0.00000000       0.12357000       2.45775400
O        4.20900000       5.67015000      19.42826000      -0.00000000      -0.04082600       2.62307400
O        7.01499000       8.91024000      19.42826000       0.00000000      -0.10541700       2.38100200
Pt       4.20900000       7.29020000      16.87326000      -0.00000000       0.21180000       0.36362900
Pt       2.80600000       4.86013000      16.87326000      -0.00000000      -0.10338500       0.60155100
Pt       1.40300000       2.43007000      16.87326000      -0.00000000       0.08948100       0.58969100
Pt       0.00000000       0.00000000      16.87326000      -0.00000000      -0.19896900       0.45463900
Pt       7.01499000       8.91024000      14.58218000       0.00000000      -0.07035500      -0.57149700
Pt       0.00000000       0.00000000      10.00000000      -0.00000000      -0.03112900      -0.10213700
Pt       2.80600000       1.62004000      14.58218000      -0.00000000       0.00598000      -0.73571800
Pt       5.61200000       8.10022000      12.29109000      -0.00000000      -0.02975800       0.08039400
Pt       4.20900000       5.67015000      12.29109000       0.00000000       0.04080100       0.03099600
Pt       2.80600000       3.24009000      12.29109000      -0.00000000      -0.03548200       0.06787200
Pt       1.40300000       0.81002000      12.29109000      -0.00000000       0.02326900       0.07631300
Pt       4.20900000       7.29020000      10.00000000       0.00000000       0.00224500      -0.16319700
Pt       2.80600000       4.86013000      10.00000000      -0.00000000      -0.01031700      -0.13987900
Pt       1.40300000       2.43007000      10.00000000      -0.00000000       0.00497500      -0.14906500
Pt       4.20900000       4.05011000      14.58218000      -0.00000000       0.00187800      -0.26756700
Pt       5.61200000       6.48017000      14.58218000       0.00000000       0.06518600      -0.74251500
22
Lattice="2.805997698 0.0 0.0 5.611995395 9.720261156 0.0 0.0 0.0 29.657262579" Properties=species:S:1:pos:R:3:forces:R:3 energy=-139.97677515 pbc="T T T"
C        2.80600000       1.62004000      18.27026000       0.00000000      -0.40066200      -2.94195100
C        5.61200000       7.29020000      18.49926000      -0.00000000       1.04127200      -2.60861000
C        4.20900000       4.86013000      18.49926000       0.00000000      -0.66487300      -2.57731900
O        4.20900000       4.86013000      19.65726000       0.00000000      -0.18845700       1.03944400
O        2.80600000       1.62004000      19.42826000       0.00000000       0.01229100       2.83841600
O        5.61200000       7.29020000      19.65726000       0.00000000       0.10981500       1.06397600
Pt       4.20900000       7.29020000      16.87326000       0.00000000       0.41964400       2.21968900
Pt       2.80600000       4.86013000      16.87326000       0.00000000      -0.64645200       2.12849900
Pt       1.40300000       2.43007000      16.87326000      -0.00000000      -0.42514700       0.57206700
Pt       0.00000000       0.00000000      16.87326000       0.00000000       0.47795800       0.27621700
Pt       7.01499000       8.91024000      14.58218000       0.00000000      -0.01361200      -0.41329700
Pt       0.00000000       0.00000000      10.00000000       0.00000000       0.02043800      -0.10230200
Pt       2.80600000       1.62004000      14.58218000       0.00000000       0.03980700      -0.68660500
Pt       5.61200000       8.10022000      12.29109000       0.00000000       0.00270100       0.09513000
Pt       4.20900000       5.67015000      12.29109000       0.00000000       0.01364800       0.09127700
Pt       2.80600000       3.24009000      12.29109000       0.00000000      -0.08894900       0.16841500
Pt       1.40300000       0.81002000      12.29109000       0.00000000      -0.00065200      -0.01536200
Pt       4.20900000       7.29020000      10.00000000       0.00000000       0.02383600      -0.08408800
Pt       2.80600000       4.86013000      10.00000000       0.00000000      -0.06865700      -0.11440800
Pt       1.40300000       2.43007000      10.00000000       0.00000000       0.01174500      -0.17975200
Pt       4.20900000       4.05011000      14.58218000       0.00000000       0.09452200      -0.24902400
Pt       5.61200000       6.48017000      14.58218000      -0.00000000       0.22978300      -0.52041400
22
Lattice="2.805997698 0.0 0.0 5.611995395 9.720261156 0.0 0.0 0.0 29.657262579" Properties=species:S:1:pos:R:3:forces:R:3 energy=-137.41316935 pbc="T T T"
C        2.80600000       3.24009000      18.27026000       0.00000000      -3.88344300      -2.69433400
C        5.61200000       8.10022000      18.27026000      -0.00000000       0.41068600      -2.91713400
C        4.20900000       4.86013000      18.49926000       0.00000000       3.98791100      -1.51633900
O        4.20900000       4.86013000      19.65726000      -0.00000000       2.71508800       0.46583300
O        2.80600000       3.24009000      19.42826000      -0.00000000      -3.47326100       2.65314500
O        5.61200000       8.10022000      19.42826000      -0.00000000      -0.02284700       2.78210000
Pt       4.20900000       7.29020000      16.87326000      -0.00000000       0.41160800       0.58192700
Pt       2.80600000       4.86013000      16.87326000      -0.00000000       0.61932900       1.76198600
Pt       1.40300000       2.43007000      16.87326000      -0.00000000      -0.96546100       0.60611200
Pt       0.00000000       0.00000000      16.87326000      -0.00000000       0.06186300       0.42595600
Pt       7.01499000       8.91024000      14.58218000      -0.00000000       0.11471000      -0.74367500
Pt       0.00000000       0.00000000      10.00000000      -0.00000000       0.02385600      -0.18792400
Pt       2.80600000       1.62004000      14.58218000      -0.00000000      -0.09065000      -0.13584600
Pt       5.61200000       8.10022000      12.29109000      -0.00000000       0.04457100       0.14078400
Pt       4.20900000       5.67015000      12.29109000      -0.00000000      -0.05726600       0.02554300
Pt       2.80600000       3.24009000      12.29109000      -0.00000000       0.02328100       0.10124100
Pt       1.40300000       0.81002000      12.29109000      -0.00000000      -0.03399400       0.00115300
Pt       4.20900000       7.29020000      10.00000000      -0.00000000       0.03096600      -0.04330300
Pt       2.80600000       4.86013000      10.00000000      -0.00000000      -0.02694300      -0.13756300
Pt       1.40300000       2.43007000      10.00000000      -0.00000000      -0.04912300      -0.13744900
Pt       4.20900000       4.05011000      14.58218000      -0.00000000       0.23800900      -0.73733000
Pt       5.61200000       6.48017000      14.58218000      -0.00000000      -0.07888900      -0.29488300
22
Lattice="2.805997698 0.0 0.0 5.611995395 9.720261156 0.0 0.0 0.0 29.886262579" Properties=species:S:1:pos:R:3:forces:R:3 energy=-137.33064207 pbc="T T T"
C        5.61200000       8.10022000      18.27026000       0.00000000      -3.66175400      -2.98633700
C        1.40300000       0.00000000      18.49926000       0.00000000       4.21590400      -1.81290300
C        2.80600000       4.86013000      18.72826000      -0.00000000      -0.22780800       0.25351800
O        2.80600000       4.86013000      19.88626000      -0.00000000       0.02090700      -0.07301400
O        5.61200000       8.10022000      19.42826000      -0.00000000      -3.51095700       2.91407900
O        1.40300000       0.00000000      19.65726000      -0.00000000       2.68219300       0.65731700
Pt       4.20900000       7.29020000      16.87326000      -0.00000000      -0.23305300       0.29433700
Pt       2.80600000       4.86013000      16.87326000      -0.00000000      -0.40372900       0.64371600
Pt       1.40300000       2.43007000      16.87326000      -0.00000000       0.16055400      -0.33265500
Pt       0.00000000       0.00000000      16.87326000      -0.00000000       0.93241200       1.95556800
Pt       7.01499000       8.91024000      14.58218000       0.00000000       0.25843500      -0.73908000
Pt       0.00000000       0.00000000      10.00000000      -0.00000000       0.05041200      -0.10576400
Pt       2.80600000       1.62004000      14.58218000      -0.00000000      -0.19286300      -0.15844100
Pt       5.61200000       8.10022000      12.29109000      -0.00000000      -0.01614800       0.12568000
Pt       4.20900000       5.67015000      12.29109000      -0.00000000      -0.12949500       0.08856100
Pt       2.80600000       3.24009000      12.29109000      -0.00000000       0.04037100       0.03786500
Pt       1.40300000       0.81002000      12.29109000      -0.00000000       0.05599000       0.13707100
Pt       4.20900000       7.29020000      10.00000000      -0.00000000      -0.06805000      -0.10269800
Pt       2.80600000       4.86013000      10.00000000      -0.00000000      -0.02386000      -0.23413300
Pt       1.40300000       2.43007000      10.00000000      -0.00000000       0.00892400      -0.15941200
Pt       4.20900000       4.05011000      14.58218000      -0.00000000       0.12186100      -0.26996100
Pt       5.61200000       6.48017000      14.58218000      -0.00000000      -0.08024500      -0.13331500
22
Lattice="2.805997698 0.0 0.0 5.611995395 9.720261156 0.0 0.0 0.0 29.886262579" Properties=species:S:1:pos:R:3:forces:R:3 energy=-139.58323417 pbc="T T T"
C        2.80600000       2.43007000      18.49926000       0.00000000       1.35873100      -3.17173500
C        4.20900000       7.29020000      18.72826000       0.00000000      -0.80210200      -0.06527700
C        0.00000000       0.00000000      18.72826000       0.00000000      -0.42656300       0.12726300
O        0.00000000       0.00000000      19.88626000      -0.00000000      -0.46438200       0.09332100
O        2.80600000       2.43007000      19.65726000       0.00000000       0.75007000       1.38672800
O        4.20900000       7.29020000      19.88626000      -0.00000000      -0.22709400       0.13619100
Pt       4.20900000       7.29020000      16.87326000       0.00000000      -0.67450000       0.60747700
Pt       2.80600000       4.86013000      16.87326000      -0.00000000       0.10016900      -0.32472600
Pt       1.40300000       2.43007000      16.87326000       0.00000000       0.38068500       2.35769700
Pt       0.00000000       0.00000000      16.87326000       0.00000000      -0.13784800       0.26179900
Pt       7.01499000       8.91024000      14.58218000       0.00000000       0.04780400      -0.22202400
Pt       0.00000000       0.00000000      10.00000000       0.00000000      -0.06787200      -0.11191000
Pt       2.80600000       1.62004000      14.58218000       0.00000000       0.05392900      -0.32002300
Pt       5.61200000       8.10022000      12.29109000       0.00000000      -0.07816800       0.15324100
Pt       4.20900000       5.67015000      12.29109000       0.00000000       0.01398700      -0.01885000
Pt       2.80600000       3.24009000      12.29109000       0.00000000       0.09850300       0.15939800
Pt       1.40300000       0.81002000      12.29109000       0.00000000      -0.04568400       0.08712500
Pt       4.20900000       7.29020000      10.00000000      -0.00000000      -0.03928900      -0.22407900
Pt       2.80600000       4.86013000      10.00000000      -0.00000000       0.03419000      -0.21142700
Pt       1.40300000       2.43007000      10.00000000       0.00000000       0.05099100      -0.07820200
Pt       4.20900000       4.05011000      14.58218000       0.00000000      -0.02974400      -0.38152100
Pt       5.61200000       6.48017000      14.58218000       0.00000000       0.10418700      -0.24046500
22
Lattice="2.805997698 0.0 0.0 5.611995395 9.720261156 0.0 0.0 0.0 29.886262579" Properties=species:S:1:pos:R:3:forces:R:3 energy=-140.41367435 pbc="T T T"
C        4.20900000       7.29020000      18.72826000      -0.00000000       0.78804700       0.01391800
C        2.80600000       1.62004000      18.27026000       0.00000000      -0.34952700      -3.15333700
C        2.80600000       4.86013000      18.72826000       0.00000000      -0.54815200       0.07587100
O        2.80600000       4.86013000      19.88626000       0.00000000      -0.25600200       0.02838600
O        4.20900000       7.29020000      19.88626000       0.00000000       0.22049100       0.05721400
O        2.80600000       1.62004000      19.42826000       0.00000000      -0.02667300       3.02725300
Pt       4.20900000       7.29020000      16.87326000       0.00000000       0.52423200       0.52370800
Pt       2.80600000       4.86013000      16.87326000      -0.00000000      -0.29851900       0.47031100
Pt       1.40300000       2.43007000      16.87326000       0.00000000      -0.39651200       0.49163800
Pt       0.00000000       0.00000000      16.87326000       0.00000000       0.42813400       0.23343700
Pt       7.01499000       8.91024000      14.58218000      -0.00000000      -0.16033900      -0.22068700
Pt       0.00000000       0.00000000      10.00000000       0.00000000       0.05163900      -0.13236200
Pt       2.80600000       1.62004000      14.58218000       0.00000000       0.02118000      -0.68199800
Pt       5.61200000       8.10022000      12.29109000       0.00000000       0.01250200       0.08777100
Pt       4.20900000       5.67015000      12.29109000       0.00000000       0.00452600       0.05572200
Pt       2.80600000       3.24009000      12.29109000       0.00000000      -0.03730700       0.12339500
Pt       1.40300000       0.81002000      12.29109000       0.00000000      -0.00417300      -0.02291800
Pt       4.20900000       7.29020000      10.00000000       0.00000000      -0.00245000      -0.08940400
Pt       2.80600000       4.86013000      10.00000000       0.00000000      -0.08292700      -0.14752400
Pt       1.40300000       2.43007000      10.00000000       0.00000000       0.01739100      -0.23269600
Pt       4.20900000       4.05011000      14.58218000      -0.00000000       0.05279400      -0.22137500
Pt       5.61200000       6.48017000      14.58218000       0.00000000       0.04164400      -0.28632200
22
Lattice="2.805997698 0.0 0.0 5.611995395 9.720261156 0.0 0.0 0.0 29.657262579" Properties=species:S:1:pos:R:3:forces:R:3 energy=-137.12221394 pbc="T T T"
C        5.61200000       8.10022000      18.27026000       0.00000000      -3.65087000      -2.84237500
C        1.40300000       0.00000000      18.49926000       0.00000000       4.24624600      -1.72042500
C        4.20900000       4.86013000      18.49926000       0.00000000      -0.18355400      -2.69733600
O        4.20900000       4.86013000      19.65726000       0.00000000       0.02238700       1.13253100
O        5.61200000       8.10022000      19.42826000      -0.00000000      -3.53187800       2.77317500
O        1.40300000       0.00000000      19.65726000       0.00000000       2.67449100       0.59950500
Pt       4.20900000       7.29020000      16.87326000       0.00000000      -0.15596700       0.35102100
Pt       2.80600000       4.86013000      16.87326000       0.00000000      -0.63597600       2.37634700
Pt       1.40300000       2.43007000      16.87326000      -0.00000000       0.14712800      -0.28031900
Pt       0.00000000       0.00000000      16.87326000      -0.00000000       0.89788400       1.96075500
Pt       7.01499000       8.91024000      14.58218000      -0.00000000       0.26132900      -0.73682200
Pt       0.00000000       0.00000000      10.00000000       0.00000000       0.01571100      -0.05811500
Pt       2.80600000       1.62004000      14.58218000       0.00000000      -0.17422400      -0.18920000
Pt       5.61200000       8.10022000      12.29109000       0.00000000      -0.03311500       0.11484100
Pt       4.20900000       5.67015000      12.29109000       0.00000000      -0.12509400       0.08979700
Pt       2.80600000       3.24009000      12.29109000       0.00000000       0.00303400       0.04357100
Pt       1.40300000       0.81002000      12.29109000      -0.00000000       0.05584700       0.13276800
Pt       4.20900000       7.29020000      10.00000000       0.00000000      -0.06620300      -0.10577900
Pt       2.80600000       4.86013000      10.00000000       0.00000000      -0.01028900      -0.20743100
Pt       1.40300000       2.43007000      10.00000000       0.00000000       0.03819600      -0.10641100
Pt       4.20900000       4.05011000      14.58218000       0.00000000       0.14016500      -0.30023100
Pt       5.61200000       6.48017000      14.58218000       0.00000000       0.06475100      -0.32986700
22
Lattice="2.805997698 0.0 0.0 5.611995395 9.720261156 0.0 0.0 0.0 29.657262579" Properties=species:S:1:pos:R:3:forces:R:3 energy=-140.12400927 pbc="T T T"
C        1.40300000       0.81002000      18.27026000       0.00000000       1.33559500      -2.59023600
C        5.61200000       8.10022000      18.27026000      -0.00000000      -0.96823100      -2.49684100
C        4.20900000       4.86013000      18.49926000      -0.00000000      -0.12952900      -2.58982800
O        4.20900000       4.86013000      19.65726000      -0.00000000       0.01966500       1.05839100
O        1.40300000       0.81002000      19.42826000      -0.00000000       0.16391200       2.56920900
O        5.61200000       8.10022000      19.42826000      -0.00000000      -0.15936900       2.57584100
Pt       4.20900000       7.29020000      16.87326000      -0.00000000       0.24637500       0.50323300
Pt       2.80600000       4.86013000      16.87326000       0.00000000      -0.54127800       2.27683700
Pt       1.40300000       2.43007000      16.87326000       0.00000000      -0.28656800       0.40794900
Pt       0.00000000       0.00000000      16.87326000      -0.00000000       0.15668500       0.46734300
Pt       7.01499000       8.91024000      14.58218000       0.00000000       0.16101900      -0.76036300
Pt       0.00000000       0.00000000      10.00000000      -0.00000000       0.00059500      -0.09796600
Pt       2.80600000       1.62004000      14.58218000      -0.00000000      -0.03339500      -0.52970200
Pt       5.61200000       8.10022000      12.29109000      -0.00000000      -0.07587900       0.04577400
Pt       4.20900000       5.67015000      12.29109000      -0.00000000      -0.01327800       0.01181400
Pt       2.80600000       3.24009000      12.29109000      -0.00000000       0.04210500       0.06174100
Pt       1.40300000       0.81002000      12.29109000      -0.00000000       0.03613900       0.13210900
Pt       4.20900000       7.29020000      10.00000000      -0.00000000      -0.00374400      -0.13374800
Pt       2.80600000       4.86013000      10.00000000      -0.00000000      -0.01874200      -0.16464400
Pt       1.40300000       2.43007000      10.00000000      -0.00000000       0.00554600      -0.10472000
Pt       4.20900000       4.05011000      14.58218000      -0.00000000       0.00621300      -0.23478200
Pt       5.61200000       6.48017000      14.58218000      -0.00000000       0.05616100      -0.40741200
22
Lattice="2.805997698 0.0 0.0 5.611995395 9.720261156 0.0 0.0 0.0 29.428262579" Properties=species:S:1:pos:R:3:forces:R:3 energy=-140.23771992 pbc="T T T"
C        2.80600000       3.24009000      18.27026000      -0.00000000      -1.14103900      -2.36069500
C        4.20900000       5.67015000      18.27026000       0.00000000       1.02849400      -2.18908800
C        7.01499000       8.91024000      18.27026000      -0.00000000       0.09942800      -2.39716400
O        7.01499000       8.91024000      19.42826000      -0.00000000       0.02893700       2.59505600
O        2.80600000       3.24009000      19.42826000       0.00000000      -0.12722500       2.48871700
O        4.20900000       5.67015000      19.42826000      -0.00000000       0.10324700       2.41127500
Pt       4.20900000       7.29020000      16.87326000       0.00000000       0.09964000       0.38257900
Pt       2.80600000       4.86013000      16.87326000       0.00000000       0.16670500       0.40183400
Pt       1.40300000       2.43007000      16.87326000      -0.00000000      -0.16729300       0.59837000
Pt       0.00000000       0.00000000      16.87326000      -0.00000000      -0.06027300       0.55128900
Pt       7.01499000       8.91024000      14.58218000      -0.00000000      -0.06691700      -0.61489500
Pt       0.00000000       0.00000000      10.00000000      -0.00000000      -0.00064900      -0.16721400
Pt       2.80600000       1.62004000      14.58218000      -0.00000000      -0.03713300      -0.23428600
Pt       5.61200000       8.10022000      12.29109000      -0.00000000       0.05295900       0.06937000
Pt       4.20900000       5.67015000      12.29109000      -0.00000000      -0.02409600       0.11023400
Pt       2.80600000       3.24009000      12.29109000      -0.00000000      -0.03416700       0.04269100
Pt       1.40300000       0.81002000      12.29109000      -0.00000000      -0.00744900       0.02069500
Pt       4.20900000       7.29020000      10.00000000      -0.00000000      -0.00872000      -0.08795600
Pt       2.80600000       4.86013000      10.00000000      -0.00000000      -0.00826300      -0.14523600
Pt       1.40300000       2.43007000      10.00000000      -0.00000000      -0.01792700      -0.16157300
Pt       4.20900000       4.05011000      14.58218000      -0.00000000       0.18143000      -0.75867200
Pt       5.61200000       6.48017000      14.58218000      -0.00000000      -0.05968600      -0.55532900
22
Lattice="2.805997698 0.0 0.0 5.611995395 9.720261156 0.0 0.0 0.0 29.886262579" Properties=species:S:1:pos:R:3:forces:R:3 energy=-139.95027614 pbc="T T T"
C        1.40300000       0.00000000      18.49926000       0.00000000      -0.97076500      -2.93353000
C        5.61200000       6.48017000      18.27026000       0.00000000      -0.38168400      -3.01391900
C        1.40300000       2.43007000      18.72826000      -0.00000000       1.25038100       0.39329300
O        1.40300000       2.43007000      19.88626000       0.00000000       0.67281800      -0.12865400
O        1.40300000       0.00000000      19.65726000      -0.00000000      -0.80874100       1.20484800
O        5.61200000       6.48017000      19.42826000       0.00000000       0.00461300       2.91168500
Pt       4.20900000       7.29020000      16.87326000      -0.00000000      -0.41564700       0.55587600
Pt       2.80600000       4.86013000      16.87326000      -0.00000000       0.42512300       0.21010700
Pt       1.40300000       2.43007000      16.87326000       0.00000000       0.70713100       0.48397200
Pt       0.00000000       0.00000000      16.87326000       0.00000000      -0.54892700       2.16799700
Pt       7.01499000       8.91024000      14.58218000       0.00000000       0.07529000      -0.24939700
Pt       0.00000000       0.00000000      10.00000000       0.00000000      -0.07799200      -0.15044300
Pt       2.80600000       1.62004000      14.58218000       0.00000000       0.19585400      -0.45490800
Pt       5.61200000       8.10022000      12.29109000       0.00000000      -0.08054800       0.14627300
Pt       4.20900000       5.67015000      12.29109000       0.00000000       0.00377100      -0.00877200
Pt       2.80600000       3.24009000      12.29109000       0.00000000       0.00004900       0.09392200
Pt       1.40300000       0.81002000      12.29109000       0.00000000       0.02350500       0.07551800
Pt       4.20900000       7.29020000      10.00000000       0.00000000       0.04340500      -0.21421800
Pt       2.80600000       4.86013000      10.00000000       0.00000000       0.02045800      -0.10865000
Pt       1.40300000       2.43007000      10.00000000       0.00000000       0.00218000      -0.10793300
Pt       4.20900000       4.05011000      14.58218000       0.00000000      -0.17244900      -0.19418200
Pt       5.61200000       6.48017000      14.58218000       0.00000000       0.03217500      -0.67888400
22
Lattice="2.805997698 0.0 0.0 5.611995395 9.720261156 0.0 0.0 0.0 29.886262579" Properties=species:S:1:pos:R:3:forces:R:3 energy=-140.03689378 pbc="T T T"
C        4.20900000       7.29020000      18.72826000      -0.00000000      -0.79599300      -0.16617100
C        0.00000000       0.00000000      18.72826000      -0.00000000       0.00413800      -0.24241600
C        1.40300000       2.43007000      18.72826000      -0.00000000       0.83922200      -0.19388100
O        1.40300000       2.43007000      19.88626000      -0.00000000       0.20381900       0.20350500
O        4.20900000       7.29020000      19.88626000       0.00000000      -0.22140500       0.20666600
O        0.00000000       0.00000000      19.88626000      -0.00000000      -0.00222000       0.27737300
Pt       4.20900000       7.29020000      16.87326000       0.00000000      -0.65435600       0.61153400
Pt       2.80600000       4.86013000      16.87326000      -0.00000000       0.01465100      -0.36263800
Pt       1.40300000       2.43007000      16.87326000       0.00000000       0.62040200       0.62573600
Pt       0.00000000       0.00000000      16.87326000      -0.00000000       0.00874900       0.33522300
Pt       7.01499000       8.91024000      14.58218000      -0.00000000       0.03937000      -0.24597300
Pt       0.00000000       0.00000000      10.00000000      -0.00000000      -0.07363700      -0.12613800
Pt       2.80600000       1.62004000      14.58218000      -0.00000000       0.00545800      -0.29362700
Pt       5.61200000       8.10022000      12.29109000      -0.00000000      -0.07293200       0.12329200
Pt       4.20900000       5.67015000      12.29109000      -0.00000000       0.01956400      -0.02066600
Pt       2.80600000       3.24009000      12.29109000       0.00000000       0.10093300       0.15406000
Pt       1.40300000       0.81002000      12.29109000      -0.00000000      -0.03463800       0.08943100
Pt       4.20900000       7.29020000      10.00000000      -0.00000000      -0.01536400      -0.24725800
Pt       2.80600000       4.86013000      10.00000000      -0.00000000       0.04530500      -0.20100500
Pt       1.40300000       2.43007000      10.00000000      -0.00000000       0.02999100      -0.07958700
Pt       4.20900000       4.05011000      14.58218000       0.00000000      -0.17843100      -0.17889600
Pt       5.61200000       6.48017000      14.58218000      -0.00000000       0.11737300      -0.26856700
22
Lattice="2.805997698 0.0 0.0 5.611995395 9.720261156 0.0 0.0 0.0 29.886262579" Properties=species:S:1:pos:R:3:forces:R:3 energy=-139.94826404 pbc="T T T"
C        5.61200000       6.48017000      18.27026000       0.00000000      -0.36246700      -3.06525400
C        0.00000000       0.00000000      18.72826000      -0.00000000      -0.99306600       0.44923300