12
Lattice="2.805997698 0.0 0.0 4.208996546 7.290195867 0.0 0.0 0.0 26.873262579" Properties=species:S:1:pos:R:3:forces:R:3 energy=-69.42460533 pbc="T T T"
Pt       0.00000000       0.00000000      10.00000000       0.00000000       0.00192100       0.01417700
Pt       1.40300000       2.43007000      10.00000000       0.00000000       0.00192100       0.01417700
Pt       2.80600000       4.86013000      10.00000000       0.00000000       0.00192100       0.01417700
Pt       1.40300000       0.81002000      12.29109000      -0.00000000       0.00521600       0.17733400
Pt       2.80600000       3.24009000      12.29109000      -0.00000000       0.00521600       0.17733400
Pt       4.20900000       5.67015000      12.29109000      -0.00000000       0.00521600       0.17733400
Pt       2.80600000       1.62004000      14.58218000       0.00000000      -0.00521600      -0.17733400
Pt       4.20900000       4.05011000      14.58218000       0.00000000      -0.00521600      -0.17733400
Pt       5.61200000       6.48017000      14.58218000       0.00000000      -0.00521600      -0.17733400
Pt       0.00000000       0.00000000      16.87326000      -0.00000000      -0.00192100      -0.01417700
Pt       1.40300000       2.43007000      16.87326000      -0.00000000      -0.00192100      -0.01417700
Pt       2.80600000       4.86013000      16.87326000      -0.00000000      -0.00192100      -0.01417700
