70
Lattice="8.417993093 0.0 0.0 5.611995395 9.720261156 0.0 0.0 0.0 29.886262579" Properties=species:S:1:pos:R:3:forces:R:3 energy=-445.08805963 pbc="T T T"
C       11.22399000       8.10022000      18.27026000       0.05134300       0.07996600      -2.31018700
C        4.20900000       5.67015000      18.27026000      -0.95294500      -2.33895500      -2.70103600
C        9.82099000       5.67015000      18.27026000      -0.08837900      -0.85422100      -2.68876800
C        4.20900000       0.81002000      18.27026000      -1.19495900      -0.56073100      -2.79930700
C        1.40300000       0.00000000      18.49926000      -1.87848000       1.13272900      -1.76245200
C        1.40300000       2.43007000      18.72826000       0.02567700       1.03182500       0.87679800
C        7.01499000       4.86013000      18.49926000       0.41208400      -0.23594100      -2.17853800
C        7.01499000       0.81002000      18.27026000       1.59824200      -1.04410700      -2.88847500
C        8.41799000       8.10022000      18.27026000       0.53471800      -1.76013800      -2.47853400
C        5.61200000       7.29020000      18.49926000       1.69732600       1.76484800      -1.61854600
C        5.61200000       2.43007000      18.49926000      -0.28357500       3.74542900      -1.56736300
O        4.20900000       5.67015000      19.42826000      -1.56039900      -1.85051100       2.66246500
O        7.01499000       4.86013000      19.65726000       0.11053400       0.02569100       1.06225700
O       11.22399000       8.10022000      19.42826000       0.07912800      -0.00090400       2.44316800
O        5.61200000       2.43007000      19.65726000      -0.03521700       2.66768000       0.67061800
O        5.61200000       7.29020000      19.65726000       1.03041000       1.42547800       0.71928900
O        9.82099000       5.67015000      19.42826000      -0.03179900      -0.13100300       2.68700000
O        4.20900000       0.81002000      19.42826000      -1.64785200      -1.68979200       2.72703300
O        1.40300000       0.00000000      19.65726000      -1.07642400       0.75266600       0.68382700
O        7.01499000       0.81002000      19.42826000       1.64843600      -1.74440000       2.81396300
O        8.41799000       8.10022000      19.42826000       1.51530200      -1.79528400       2.50183000
O        1.40300000       2.43007000      19.88626000      -0.00618900       0.74753800      -0.36711200
Pt       9.82099000       8.91024000      14.58218000      -0.03911100       0.08759800      -0.57391700
Pt       9.82099000       7.29020000      16.87326000      -0.12686800      -0.03055200       0.59205700
Pt       7.01499000       7.29020000      16.87326000      -0.60091000      -0.15301100       1.02352700
Pt       4.20900000       7.29020000      16.87326000       0.46961800       0.22137600       1.07745500
Pt       5.61200000       4.86013000      16.87326000       0.45288300      -0.35485500       0.88203500
Pt       2.80600000       4.86013000      16.87326000       0.13665200      -0.09009500       0.68805800
Pt       7.01499000       2.43007000      16.87326000      -0.51727700      -0.04575700       0.89245300
Pt       4.20900000       2.43007000      16.87326000       0.58681500       0.18743200       1.11628200
Pt       1.40300000       2.43007000      16.87326000       0.01244400       0.62940100       0.45189300
Pt       5.61200000       0.00000000      16.87326000       0.06465100      -0.40345800       0.30173800
Pt       2.80600000       0.00000000      16.87326000      -0.32639800       0.17462600       1.05254000
Pt       0.00000000       0.00000000      16.87326000       0.48152000       0.03246500       1.25834400
Pt       8.41799000       4.86013000      16.87326000      -0.60451400      -0.23712400       1.34486000
Pt       0.00000000       0.00000000      10.00000000      -0.04032600       0.00818400      -0.11968400
Pt       8.41799000       6.48017000      14.58218000      -0.01929100       0.20526900      -0.57387200
Pt       2.80600000       0.00000000      10.00000000       0.01830100      -0.02590900      -0.13583300
Pt       5.61200000       0.00000000      10.00000000       0.01874400      -0.05006500      -0.20425000
Pt       1.40300000       2.43007000      10.00000000       0.01643400       0.01056600      -0.18030600
Pt       4.20900000       2.43007000      10.00000000       0.02393500       0.00610400      -0.19285000
Pt       7.01499000       2.43007000      10.00000000      -0.04000400      -0.02175800      -0.22397900
Pt       2.80600000       4.86013000      10.00000000      -0.02532400       0.00695100      -0.20695200
Pt       5.61200000       4.86013000      10.00000000       0.00010100       0.00868300      -0.18873300
Pt       8.41799000       4.86013000      10.00000000       0.03650100       0.00625800      -0.15711200
Pt       4.20900000       7.29020000      10.00000000      -0.03794700       0.01830400      -0.22110700
Pt       7.01499000       7.29020000      10.00000000       0.03224700      -0.00025800      -0.21631000
Pt       9.82099000       7.29020000      10.00000000       0.01249400       0.01688600      -0.21930000
Pt       1.40300000       0.81002000      12.29109000       0.00091000      -0.01489100       0.16869400
Pt       4.20900000       0.81002000      12.29109000       0.05580900       0.09087000       0.09100400
Pt       7.01499000       0.81002000      12.29109000      -0.04190400       0.04080300       0.15881400
Pt       2.80600000       3.24009000      12.29109000      -0.01767800      -0.02393500       0.16147900
Pt       5.61200000       3.24009000      12.29109000      -0.00344600       0.01385800       0.03901600
Pt       8.41799000       3.24009000      12.29109000       0.01390700      -0.03637000       0.07263400
Pt       5.61200000       6.48017000      14.58218000       0.01601100       0.11404100      -0.72335500
Pt      11.22399000       6.48017000      14.58218000      -0.00684100       0.21353000      -0.76183700
Pt       7.01499000       4.05011000      14.58218000       0.02818800      -0.07697400      -0.30126200
Pt       4.20900000       4.05011000      14.58218000      -0.04595800      -0.03190400      -0.16391200
Pt       9.82099000       4.05011000      14.58218000       0.01840900      -0.03409000      -0.27350500
Pt       5.61200000       1.62004000      14.58218000       0.03225700      -0.15616900      -1.03505200
Pt      12.62699000       8.91024000      14.58218000       0.03481700       0.03506400      -0.34697900
Pt       2.80600000       1.62004000      14.58218000      -0.03549000       0.13852200      -0.25460700
Pt      11.22399000       8.10022000      12.29109000       0.00312300      -0.05992800       0.12818100
Pt       8.41799000       8.10022000      12.29109000      -0.02547600      -0.06574400       0.08385800
Pt       5.61200000       8.10022000      12.29109000       0.01698200      -0.07944900       0.07211400
Pt       9.82099000       5.67015000      12.29109000      -0.02282400      -0.03692600       0.17387800
Pt       7.01499000       5.67015000      12.29109000      -0.04056800      -0.03048200       0.03986700
Pt       4.20900000       5.67015000      12.29109000       0.05428300      -0.02477300       0.06358000
Pt       8.41799000       1.62004000      14.58218000       0.03549800       0.31572200      -0.42542500
Pt       7.01499000       8.91024000      14.58218000      -0.00236100       0.13410100      -0.72215400
