32
Lattice="5.611995395 0.0 0.0 4.208996546 7.290195867 0.0 0.0 0.0 29.657262579" Properties=species:S:1:pos:R:3:forces:R:3 energy=-201.46111348 pbc="T T T"
C        7.01499000       4.86013000      18.49926000      -2.18515300       2.01563500      -1.94070200
C        5.61200000       1.62004000      18.27026000      -0.07238100      -0.07795300      -2.53725000
C        4.20900000       5.67015000      18.27026000       0.51193400       0.76084900      -2.73392400
C        2.80600000       3.24009000      18.27026000       1.11998200      -2.54151200      -2.62294700
O        2.80600000       3.24009000      19.42826000       1.59281600      -1.80091000       2.63523700
O        7.01499000       4.86013000      19.65726000      -1.11654000       1.40572800       0.74611200
O        5.61200000       1.62004000      19.42826000       0.01207800       0.00674000       2.81860800
O        4.20900000       5.67015000      19.42826000      -0.01771500       0.04689500       2.69058900
Pt       5.61200000       4.86013000      16.87326000       0.71396600       0.16807400       1.48532200
Pt       2.80600000       4.86013000      16.87326000      -0.45936500       0.45608700       1.21440500
Pt       4.20900000       2.43007000      16.87326000      -0.08726700      -0.39686400       0.60055900
Pt       1.40300000       2.43007000      16.87326000      -0.01068700      -0.62024000       0.40519200
Pt       2.80600000       0.00000000      16.87326000      -0.00985400       0.17951200      -0.51026400
Pt       0.00000000       0.00000000      16.87326000       0.01924700       0.24510600       0.66902300
Pt       5.61200000       6.48017000      14.58218000       0.00699800       0.08071700      -0.54130000
Pt       8.41799000       6.48017000      14.58218000      -0.01337200      -0.09548300      -0.37726800
Pt       0.00000000       0.00000000      10.00000000      -0.02700500       0.01075300      -0.14929400
Pt       2.80600000       1.62004000      14.58218000      -0.01138700      -0.01589500      -0.46267200
Pt       5.61200000       1.62004000      14.58218000       0.00820100      -0.00080300      -0.36644600
Pt       7.01499000       5.67015000      12.29109000      -0.02695200       0.02638300       0.07902200
Pt       4.20900000       5.67015000      12.29109000       0.02522300       0.09761500       0.27914200
Pt       5.61200000       3.24009000      12.29109000      -0.01477400      -0.06709700       0.06094100
Pt       2.80600000       3.24009000      12.29109000       0.01670800      -0.15421500       0.17197400
Pt       4.20900000       0.81002000      12.29109000      -0.00573700       0.04969900       0.02580600
Pt       1.40300000       0.81002000      12.29109000       0.00267400      -0.00798500       0.00559300
Pt       5.61200000       4.86013000      10.00000000      -0.01667900       0.01327800      -0.12634200
Pt       2.80600000       4.86013000      10.00000000       0.02192600      -0.03583700      -0.09145800
Pt       4.20900000       2.43007000      10.00000000      -0.00138300      -0.00244200      -0.14968500
Pt       1.40300000       2.43007000      10.00000000       0.00081200       0.00415100      -0.18311700
Pt       2.80600000       0.00000000      10.00000000       0.02154500      -0.00926700      -0.15825600
Pt       7.01499000       4.05011000      14.58218000      -0.05145700       0.09046500      -0.63145400
Pt       4.20900000       4.05011000      14.58218000       0.05359800       0.16881400      -0.30514400
32
Lattice="5.611995395 0.0 0.0 4.208996546 7.290195867 0.0 0.0 0.0 29.657262579" Properties=species:S:1:pos:R:3:forces:R:3 energy=-201.16878533 pbc="T T T"
C        4.20900000       4.86013000      18.49926000       0.21698100       0.54378300      -2.65987400
C        4.20900000       0.81002000      18.27026000       1.35208600      -1.80698700      -3.45512100
C        7.01499000       4.86013000      18.49926000      -0.22149700       0.45356600      -2.67327700
C        2.80600000       2.43007000      18.49926000      -2.16779600       1.18670300      -2.35535300
O        2.80600000       2.43007000      19.65726000      -1.13131400       1.23661900       1.02972300
O        4.20900000       4.86013000      19.65726000       0.06339800       0.05496700       1.06276900
O        4.20900000       0.81002000      19.42826000       1.65537600      -1.89205500       3.06734700
O        7.01499000       4.86013000      19.65726000      -0.06710500       0.08584000       1.05874900
Pt       5.61200000       4.86013000      16.87326000      -0.01148500      -0.08986200       2.45014400
Pt       2.80600000       4.86013000      16.87326000      -0.01546100       0.04773100       2.12138700
Pt       4.20900000       2.43007000      16.87326000      -0.16899800      -0.25218800       1.08201800
Pt       1.40300000       2.43007000      16.87326000       0.64245500      -0.57543300       1.10568100
Pt       2.80600000       0.00000000      16.87326000      -0.09882600       0.11562200       0.26240200
Pt       0.00000000       0.00000000      16.87326000       0.00698500       0.54574500       0.47306100
Pt       5.61200000       6.48017000      14.58218000       0.01088100       0.13974400      -0.21328100
Pt       8.41799000       6.48017000      14.58218000      -0.01918000      -0.10812800      -0.66653000
Pt       0.00000000       0.00000000      10.00000000      -0.01414300       0.04751200      -0.07247500
Pt       2.80600000       1.62004000      14.58218000      -0.07656400      -0.07843400      -0.89204700
Pt       5.61200000       1.62004000      14.58218000       0.06001900       0.31668400      -0.03808600
Pt       7.01499000       5.67015000      12.29109000       0.04594000       0.06878800       0.09657900
Pt       4.20900000       5.67015000      12.29109000      -0.02831300       0.03265000       0.12635000
Pt       5.61200000       3.24009000      12.29109000       0.01296400      -0.15390900       0.14728600
Pt       2.80600000       3.24009000      12.29109000      -0.00944400      -0.06895800       0.12641100
Pt       4.20900000       0.81002000      12.29109000      -0.06102800       0.02848800       0.06432300
Pt       1.40300000       0.81002000      12.29109000       0.02748200      -0.02370900       0.05160400
Pt       5.61200000       4.86013000      10.00000000       0.00202900       0.01105900      -0.05871400
Pt       2.80600000       4.86013000      10.00000000       0.00248300      -0.07271400      -0.11139500
Pt       4.20900000       2.43007000      10.00000000      -0.02464000      -0.01508800      -0.18556200
Pt       1.40300000       2.43007000      10.00000000       0.02112500       0.01952100      -0.20390400
Pt       2.80600000       0.00000000      10.00000000      -0.00212600      -0.03113600      -0.20185500
Pt       7.01499000       4.05011000      14.58218000      -0.02679000       0.18455700      -0.33798900
Pt       4.20900000       4.05011000      14.58218000       0.02450500       0.04902200      -0.20037100
32
Lattice="5.611995395 0.0 0.0 4.208996546 7.290195867 0.0 0.0 0.0 29.886262579" Properties=species:S:1:pos:R:3:forces:R:3 energy=-201.06873995 pbc="T T T"
C        5.61200000       2.43007000      18.49926000      -0.23357500       0.58840700      -2.68513400
C        2.80600000       3.24009000      18.27026000       1.30292000      -1.59402900      -3.14651400
C        0.00000000       0.00000000      18.72826000       0.00514500      -1.07941100       0.49837500
C        7.01499000       4.86013000      18.49926000      -1.89124600       2.66259100      -2.56822800
O        7.01499000       4.86013000      19.65726000      -1.10548900       1.46527000       1.24475800
O        5.61200000       2.43007000      19.65726000      -0.03444300       0.69302800       1.15738600
O        2.80600000       3.24009000      19.42826000       1.63749400      -1.78417000       2.89455000
O        0.00000000       0.00000000      19.88626000      -0.00170200      -0.72092900      -0.23696400
Pt       5.61200000       4.86013000      16.87326000       0.74836800       0.28355500       0.99870700
Pt       2.80600000       4.86013000      16.87326000      -0.34697900       0.26729200       1.17422100
Pt       4.20900000       2.43007000      16.87326000       0.32374600      -0.08942200       1.50727500
Pt       1.40300000       2.43007000      16.87326000      -0.35316200      -0.54251200       1.17615900
Pt       2.80600000       0.00000000      16.87326000      -0.02617400       0.02301200      -0.39742600
Pt       0.00000000       0.00000000      16.87326000       0.02347600      -0.51213100       0.60186600
Pt       5.61200000       6.48017000      14.58218000      -0.17410400       0.06493500      -0.27849500
Pt       8.41799000       6.48017000      14.58218000       0.18127400      -0.06237000      -0.12872300
Pt       0.00000000       0.00000000      10.00000000      -0.00217100       0.00723500      -0.20688000
Pt       2.80600000       1.62004000      14.58218000      -0.00330400       0.21375000      -0.02751300
Pt       5.61200000       1.62004000      14.58218000       0.01921500      -0.09372000      -0.39411100
Pt       7.01499000       5.67015000      12.29109000      -0.02259400       0.02284700       0.07004400
Pt       4.20900000       5.67015000      12.29109000       0.02771900       0.06595800       0.20366400
Pt       5.61200000       3.24009000      12.29109000       0.02253200      -0.00590100       0.11168400
Pt       2.80600000       3.24009000      12.29109000      -0.04847900      -0.09565800       0.22579700
Pt       4.20900000       0.81002000      12.29109000       0.00513300      -0.02760200       0.02800600
Pt       1.40300000       0.81002000      12.29109000      -0.00674500      -0.04178700       0.04929100
Pt       5.61200000       4.86013000      10.00000000      -0.02391700       0.01252100      -0.20377800
Pt       2.80600000       4.86013000      10.00000000       0.02142300      -0.05442900      -0.14158500
Pt       4.20900000       2.43007000      10.00000000      -0.00756200       0.03836900      -0.07762700
Pt       1.40300000       2.43007000      10.00000000      -0.00317700       0.00460100      -0.20185800
Pt       2.80600000       0.00000000      10.00000000      -0.00203100      -0.03579800      -0.12266800
Pt       7.01499000       4.05011000      14.58218000      -0.06599500      -0.00253200      -1.01300400
Pt       4.20900000       4.05011000      14.58218000       0.03440500       0.32903100      -0.11127200
32
Lattice="5.611995395 0.0 0.0 4.208996546 7.290195867 0.0 0.0 0.0 29.886262579" Properties=species:S:1:pos:R:3:forces:R:3 energy=-202.61753978 pbc="T T T"
C        5.61200000       2.43007000      18.49926000       0.03054700       0.04767200      -2.90411300
C        2.80600000       2.43007000      18.49926000      -0.03239700       1.25947700      -2.95917700
C        4.20900000       5.67015000      18.27026000       0.00116000       0.02651200      -3.82518100
C        2.80600000       0.00000000      18.72826000      -0.00177300      -1.11584200       0.57392100
O        2.80600000       0.00000000      19.88626000       0.00032500      -0.68524900      -0.27972700
O        5.61200000       2.43007000      19.65726000      -0.00818800      -0.01299200       1.27273500
O        2.80600000       2.43007000      19.65726000       0.00783200       0.75353200       1.15510000
O        4.20900000       5.67015000      19.42826000      -0.00144800      -0.03430200       3.42722800
Pt       5.61200000       4.86013000      16.87326000      -0.01233000       0.25172300       0.29883000
Pt       2.80600000       4.86013000      16.87326000       0.00676900       0.27749000       0.29097800
Pt       4.20900000       2.43007000      16.87326000       0.16291000      -0.21403600       2.27121800
Pt       1.40300000       2.43007000      16.87326000      -0.16870800       0.10300000       2.26923300
Pt       2.80600000       0.00000000      16.87326000       0.00972200      -0.53263600       0.55197000
Pt       0.00000000       0.00000000      16.87326000      -0.00559600      -0.41574600       0.22739300
Pt       5.61200000       6.48017000      14.58218000       0.20364200       0.14814100      -0.44106600
Pt       8.41799000       6.48017000      14.58218000      -0.19940600       0.10289200      -0.42126900
Pt       0.00000000       0.00000000      10.00000000      -0.00147900      -0.02491400      -0.18293900
Pt       2.80600000       1.62004000      14.58218000      -0.00389400      -0.02217300      -0.28885600
Pt       5.61200000       1.62004000      14.58218000       0.00236800       0.10769700      -0.07116300
Pt       7.01499000       5.67015000      12.29109000       0.02109000       0.02043000       0.07884100
Pt       4.20900000       5.67015000      12.29109000      -0.01228400       0.00203000       0.04050500
Pt       5.61200000       3.24009000      12.29109000      -0.05065700       0.06829000       0.11528100
Pt       2.80600000       3.24009000      12.29109000       0.04291900       0.07210600       0.12782100
Pt       4.20900000       0.81002000      12.29109000      -0.00229300      -0.08789900       0.15606400
Pt       1.40300000       0.81002000      12.29109000       0.00301700      -0.10872600       0.11749100
Pt       5.61200000       4.86013000      10.00000000       0.03094300      -0.00115400      -0.15797700
Pt       2.80600000       4.86013000      10.00000000      -0.03417500       0.04134700      -0.18169700
Pt       4.20900000       2.43007000      10.00000000       0.00198000      -0.02389300      -0.12914200
Pt       1.40300000       2.43007000      10.00000000      -0.00345800      -0.01716200      -0.04415600
Pt       2.80600000       0.00000000      10.00000000       0.00608300       0.00640500      -0.24332600
Pt       7.01499000       4.05011000      14.58218000      -0.00463200       0.10652800      -0.15456800
Pt       4.20900000       4.05011000      14.58218000       0.01141200      -0.09854900      -0.69025100
32
Lattice="5.611995395 0.0 0.0 4.208996546 7.290195867 0.0 0.0 0.0 29.428262579" Properties=species:S:1:pos:R:3:forces:R:3 energy=-202.32337389 pbc="T T T"
C        5.61200000       1.62004000      18.27026000       0.32339100      -0.17585200      -2.34273300
C        4.20900000       4.05011000      18.27026000      -0.43000800       0.84032400      -2.58998400
C        5.61200000       6.48017000      18.27026000       0.28335700      -0.40317000      -2.47596900
C        2.80600000       1.62004000      18.27026000      -0.32779000      -0.15024700      -2.35243700
O        2.80600000       1.62004000      19.42826000       0.04402200       0.01598700       2.43119000
O        5.61200000       1.62004000      19.42826000      -0.03970100       0.01964100       2.41754500
O        4.20900000       4.05011000      19.42826000      -0.07258900       0.06852400       2.55987200
O        5.61200000       6.48017000      19.42826000       0.03360200      -0.09579200       2.55221300
Pt       5.61200000       4.86013000      16.87326000       0.11148400       0.15349000       0.63324500
Pt       2.80600000       4.86013000      16.87326000       0.10897400      -0.05388500       0.30933300
Pt       4.20900000       2.43007000      16.87326000       0.01581500      -0.03263000       0.59583400
Pt       1.40300000       2.43007000      16.87326000      -0.01308100       0.10662000       0.64323000
Pt       2.80600000       0.00000000      16.87326000       0.12105200      -0.24234000       0.62289500
Pt       0.00000000       0.00000000      16.87326000      -0.11758400      -0.07413700       0.61641800
Pt       5.61200000       6.48017000      14.58218000       0.01134500      -0.04571600      -0.81122600
Pt       8.41799000       6.48017000      14.58218000      -0.01297000       0.01971800      -0.19068000
Pt       0.00000000       0.00000000      10.00000000      -0.00769200       0.00609700      -0.17266400
Pt       2.80600000       1.62004000      14.58218000       0.08819500       0.05460600      -0.74800100
Pt       5.61200000       1.62004000      14.58218000      -0.08203900       0.05872100      -0.72321300
Pt       7.01499000       5.67015000      12.29109000      -0.01410300       0.00897700       0.10099400
Pt       4.20900000       5.67015000      12.29109000       0.01700000       0.05232000       0.06954600
Pt       5.61200000       3.24009000      12.29109000      -0.04324300       0.03205100       0.20298700
Pt       2.80600000       3.24009000      12.29109000       0.02310700      -0.03238500       0.11196500
Pt       4.20900000       0.81002000      12.29109000       0.00430800      -0.01574300       0.12012200
Pt       1.40300000       0.81002000      12.29109000       0.01112100      -0.05193800       0.06991400
Pt       5.61200000       4.86013000      10.00000000       0.00336000      -0.02694000      -0.17272400
Pt       2.80600000       4.86013000      10.00000000      -0.00339800       0.00592900      -0.12493800
Pt       4.20900000       2.43007000      10.00000000       0.02877400      -0.01576900      -0.19089200
Pt       1.40300000       2.43007000      10.00000000      -0.03788200       0.00962900      -0.12774600
Pt       2.80600000       0.00000000      10.00000000       0.00887500       0.01583700      -0.16229400
Pt       7.01499000       4.05011000      14.58218000      -0.09006100       0.02700500      -0.15600600
Pt       4.20900000       4.05011000      14.58218000       0.05435800      -0.07893300      -0.71579600
32
Lattice="5.611995395 0.0 0.0 4.208996546 7.290195867 0.0 0.0 0.0 29.657262579" Properties=species:S:1:pos:R:3:forces:R:3 energy=-199.84607512 pbc="T T T"
C        2.80600000       3.24009000      18.27026000       0.98953400      -2.67691900      -3.14920500
C        4.20900000       5.67015000      18.27026000       1.77553000      -0.94438100      -2.89723500
C        7.01499000       4.86013000      18.49926000      -2.38160800       1.42190300      -1.93935100
C        4.20900000       0.00000000      18.49926000      -1.82473000       2.68205500      -2.23577600
O        4.20900000       0.00000000      19.65726000      -1.12328400       1.45933100       1.00200900
O        2.80600000       3.24009000      19.42826000       1.63942200      -1.87480800       2.83479000
O        4.20900000       5.67015000      19.42826000       1.60149600      -1.77173000       2.64442300
O        7.01499000       4.86013000      19.65726000      -1.15194800       1.34526600       0.75920500
Pt       5.61200000       4.86013000      16.87326000       0.60125000      -0.12913900       1.66201800
Pt       2.80600000       4.86013000      16.87326000      -0.37627300      -0.21065800       0.88928600
Pt       4.20900000       2.43007000      16.87326000      -0.02490100       0.03675000       0.47505100
Pt       1.40300000       2.43007000      16.87326000      -0.06768600      -0.45153700       0.33786900
Pt       2.80600000       0.00000000      16.87326000       0.57000800       0.28493400       1.05320800
Pt       0.00000000       0.00000000      16.87326000      -0.16305500       0.62957900       1.32767600
Pt       5.61200000       6.48017000      14.58218000       0.03256100       0.37302600      -0.16354400
Pt       8.41799000       6.48017000      14.58218000      -0.05619300      -0.17366200      -0.80904600
Pt       0.00000000       0.00000000      10.00000000      -0.02459200      -0.01075800      -0.06242400
Pt       2.80600000       1.62004000      14.58218000      -0.05414400      -0.10927700      -0.59588700
Pt       5.61200000       1.62004000      14.58218000       0.02525200      -0.01006600      -0.01329500
Pt       7.01499000       5.67015000      12.29109000      -0.00193000      -0.06173100       0.13933700
Pt       4.20900000       5.67015000      12.29109000      -0.02046800      -0.11152500       0.18320300
Pt       5.61200000       3.24009000      12.29109000      -0.00586300      -0.07100100       0.05024100
Pt       2.80600000       3.24009000      12.29109000      -0.01382700      -0.02160900       0.02448400
Pt       4.20900000       0.81002000      12.29109000      -0.03640500       0.08540600       0.10733200
Pt       1.40300000       0.81002000      12.29109000       0.05366700       0.02724500       0.07325600
Pt       5.61200000       4.86013000      10.00000000       0.01487600       0.06387200      -0.10345900
Pt       2.80600000       4.86013000      10.00000000      -0.01391800      -0.03700400      -0.19185600
Pt       4.20900000       2.43007000      10.00000000      -0.01265600      -0.00868300      -0.14369900
Pt       1.40300000       2.43007000      10.00000000      -0.00058300       0.01188200      -0.18460900
Pt       2.80600000       0.00000000      10.00000000       0.02401900      -0.05786400      -0.14892000
Pt       7.01499000       4.05011000      14.58218000      -0.04210800       0.08722800      -0.60414300
Pt       4.20900000       4.05011000      14.58218000       0.06855500       0.22387500      -0.32093900
32
Lattice="5.611995395 0.0 0.0 4.208996546 7.290195867 0.0 0.0 0.0 29.657262579" Properties=species:S:1:pos:R:3:forces:R:3 energy=-202.86904929 pbc="T T T"
C        5.61200000       3.24009000      18.27026000       0.00019300       0.35563300      -3.03150700
C        1.40300000       0.00000000      18.49926000      -0.00031300      -0.09828900      -2.66346900
C        2.80600000       3.24009000      18.27026000       0.00019300       0.35563300      -3.03150700
C        4.20900000       0.00000000      18.49926000      -0.00031300      -0.09828900      -2.66346900
O        4.20900000       0.00000000      19.65726000      -0.00092500       0.01079600       1.07917100
O        5.61200000       3.24009000      19.42826000       0.00109400      -0.00513500       2.84829300
O        1.40300000       0.00000000      19.65726000      -0.00092500       0.01079600       1.07917100
O        2.80600000       3.24009000      19.42826000       0.00109400      -0.00513500       2.84829300
Pt       5.61200000       4.86013000      16.87326000       0.00001700      -0.24984000       0.33758000
Pt       2.80600000       4.86013000      16.87326000       0.00001700      -0.24984000       0.33758000
Pt       4.20900000       2.43007000      16.87326000       0.00008300       0.35617700       0.60682200
Pt       1.40300000       2.43007000      16.87326000       0.00008300       0.35617700       0.60682200
Pt       2.80600000       0.00000000      16.87326000      -0.00002200      -0.53489700       2.27510500
Pt       0.00000000       0.00000000      16.87326000      -0.00002200      -0.53489700       2.27510500
Pt       5.61200000       6.48017000      14.58218000      -0.00002100       0.00989700      -0.17546900
Pt       8.41799000       6.48017000      14.58218000      -0.00002100       0.00989700      -0.17546900
Pt       0.00000000       0.00000000      10.00000000      -0.00001400      -0.02273200      -0.10620700
Pt       2.80600000       1.62004000      14.58218000      -0.00001900       0.04439300      -0.41857200
Pt       5.61200000       1.62004000      14.58218000      -0.00001900       0.04439300      -0.41857200
Pt       7.01499000       5.67015000      12.29109000      -0.00000800      -0.01656200       0.08084200
Pt       4.20900000       5.67015000      12.29109000      -0.00000800      -0.01656200       0.08084200
Pt       5.61200000       3.24009000      12.29109000      -0.00000500       0.04612900       0.13037100
Pt       2.80600000       3.24009000      12.29109000      -0.00000500       0.04612900       0.13037100
Pt       4.20900000       0.81002000      12.29109000      -0.00001400      -0.01747400       0.04324100
Pt       1.40300000       0.81002000      12.29109000      -0.00001400      -0.01747400       0.04324100
Pt       5.61200000       4.86013000      10.00000000      -0.00001200       0.00507400      -0.22342400
Pt       2.80600000       4.86013000      10.00000000      -0.00001200       0.00507400      -0.22342400
Pt       4.20900000       2.43007000      10.00000000      -0.00001200       0.02392600      -0.08514100
Pt       1.40300000       2.43007000      10.00000000      -0.00001200       0.02392600      -0.08514100
Pt       2.80600000       0.00000000      10.00000000      -0.00001400      -0.02273200      -0.10620700
Pt       7.01499000       4.05011000      14.58218000      -0.00002200       0.09290400      -0.69763800
Pt       4.20900000       4.05011000      14.58218000      -0.00002200       0.09290400      -0.69763800
32
Lattice="5.611995395 0.0 0.0 4.208996546 7.290195867 0.0 0.0 0.0 29.657262579" Properties=species:S:1:pos:R:3:forces:R:3 energy=-200.24173087 pbc="T T T"
C        5.61200000       6.48017000      18.27026000      -1.39845700       2.13564300      -2.49283600
C        5.61200000       3.24009000      18.27026000      -0.94284700      -1.83775600      -2.90185100
C        4.20900000       0.81002000      18.27026000      -0.16881100      -0.32545900      -2.60315800
C        7.01499000       4.86013000      18.49926000       4.46298400      -0.06840300      -1.79748100
O        7.01499000       4.86013000      19.65726000       2.25267400       0.01403400       0.66249000
O        5.61200000       6.48017000      19.42826000      -1.63359200       1.73368700       2.64111400
O        5.61200000       3.24009000      19.42826000      -1.56961800      -1.70687100       2.70728500
O        4.20900000       0.81002000      19.42826000      -0.06663600      -0.05896700       2.72449200
Pt       5.61200000       4.86013000      16.87326000      -0.11843200       0.04271200       0.88248400
Pt       2.80600000       4.86013000      16.87326000      -0.83873900      -0.39561000       1.12667600
Pt       4.20900000       2.43007000      16.87326000      -0.17857300       0.10218100       0.76952700
Pt       1.40300000       2.43007000      16.87326000       0.00809000      -0.00132400       0.25162700
Pt       2.80600000       0.00000000      16.87326000      -0.19755800       0.44634600       0.46839500
Pt       0.00000000       0.00000000      16.87326000       0.25703900      -0.21025700       0.62978700
Pt       5.61200000       6.48017000      14.58218000      -0.01724400      -0.01160200      -0.42879400
Pt       8.41799000       6.48017000      14.58218000       0.02789000       0.04002500      -0.51203000
Pt       0.00000000       0.00000000      10.00000000       0.00549600      -0.01850800      -0.16928400
Pt       2.80600000       1.62004000      14.58218000      -0.07457500       0.16957100      -0.28220600
Pt       5.61200000       1.62004000      14.58218000       0.10022400      -0.08058700      -0.73112300
Pt       7.01499000       5.67015000      12.29109000       0.00727600      -0.08623500       0.09135400
Pt       4.20900000       5.67015000      12.29109000      -0.01858900       0.01062400       0.05602200
Pt       5.61200000       3.24009000      12.29109000       0.08809800       0.02864400       0.08858000
Pt       2.80600000       3.24009000      12.29109000      -0.02147800      -0.03328600       0.07439600
Pt       4.20900000       0.81002000      12.29109000       0.07102800      -0.02877300       0.15475000
Pt       1.40300000       0.81002000      12.29109000      -0.05776000       0.04450100       0.05875200
Pt       5.61200000       4.86013000      10.00000000      -0.00616900       0.01459500      -0.14319700
Pt       2.80600000       4.86013000      10.00000000       0.00538200      -0.00815800      -0.12450700
Pt       4.20900000       2.43007000      10.00000000       0.00200000      -0.00580400      -0.11238200
Pt       1.40300000       2.43007000      10.00000000       0.02098700      -0.00931500      -0.21703000
Pt       2.80600000       0.00000000      10.00000000       0.01577000      -0.00201900      -0.06291600
Pt       7.01499000       4.05011000      14.58218000       0.00804800      -0.06642600      -0.84277000
Pt       4.20900000       4.05011000      14.58218000      -0.02390700       0.17279700       0.03383300
32
Lattice="5.611995395 0.0 0.0 4.208996546 7.290195867 0.0 0.0 0.0 29.886262579" Properties=species:S:1:pos:R:3:forces:R:3 energy=-203.24239404 pbc="T T T"
C        7.01499000       5.67015000      18.27026000       0.19779200      -0.44170700      -2.73185800
C        4.20900000       5.67015000      18.27026000      -0.20453000      -0.28123100      -2.87479700
C        1.40300000       0.81002000      18.27026000      -0.01062800       0.86785000      -3.18779700
C        4.20900000       2.43007000      18.72826000       0.00223100       0.00791500       0.59304100
O        4.20900000       2.43007000      19.88626000      -0.00056200       0.00038600      -0.36064600
O        7.01499000       5.67015000      19.42826000       0.06592500      -0.07396200       2.70319200
O        4.20900000       5.67015000      19.42826000      -0.06129500      -0.07223800       2.77567100
O        1.40300000       0.81002000      19.42826000       0.00022500       0.20319300       2.99596700
Pt       5.61200000       4.86013000      16.87326000       0.19052200      -0.19925900       0.58073200
Pt       2.80600000       4.86013000      16.87326000      -0.18390500      -0.02332300       0.58004900
Pt       4.20900000       2.43007000      16.87326000      -0.01237000       0.03098400       0.58189400
Pt       1.40300000       2.43007000      16.87326000       0.00290200      -0.14012800       0.25191300
Pt       2.80600000       0.00000000      16.87326000       0.06719400       0.03400300       0.53429500
Pt       0.00000000       0.00000000      16.87326000      -0.05838500       0.06469700       0.52730200
Pt       5.61200000       6.48017000      14.58218000       0.00715500       0.01567700      -1.07429000
Pt       8.41799000       6.48017000      14.58218000      -0.00322100       0.21134500      -0.43152900