24
Lattice="5.611995395 0.0 0.0 2.805997698 4.860130578 0.0 0.0 0.0 29.657262579" Properties=species:S:1:pos:R:3:forces:R:3 energy=-152.20692059 pbc="T T T"
C        7.01499000       4.05011000      18.27026000      -1.36362700       1.64911000      -2.61989600
C        2.80600000       2.43007000      18.49926000       2.06864400      -1.70826800      -1.62638700
C        1.40300000       0.00000000      18.49926000       2.06864400      -1.70826800      -1.62638700
C        5.61200000       1.62004000      18.27026000      -1.36362700       1.64911000      -2.61989600
O        5.61200000       1.62004000      19.42826000      -1.57545400       1.79059000       2.54710300
O        7.01499000       4.05011000      19.42826000      -1.57545400       1.79059000       2.54710300
O        2.80600000       2.43007000      19.65726000       1.10929700      -1.45996100       0.74073800
O        1.40300000       0.00000000      19.65726000       1.10929700      -1.45996100       0.74073800
Pt       4.20900000       2.43007000      16.87326000      -0.37831600      -0.54714300       1.34900400
Pt       1.40300000       2.43007000      16.87326000       0.13508600       0.06394400       1.06424200
Pt       2.80600000       0.00000000      16.87326000      -0.37831600      -0.54714300       1.34900400
Pt       0.00000000       0.00000000      16.87326000       0.13508600       0.06394400       1.06424200
Pt       0.00000000       0.00000000      10.00000000      -0.00142700       0.01346700      -0.14975000
Pt       2.80600000       1.62004000      14.58218000      -0.07603300      -0.00108600      -0.74666600
Pt       5.61200000       1.62004000      14.58218000       0.06098600       0.23504800      -0.53533600
Pt       5.61200000       3.24009000      12.29109000      -0.01579000       0.02106600       0.11230100
Pt       2.80600000       3.24009000      12.29109000       0.02149600      -0.02187100       0.06159300
Pt       4.20900000       0.81002000      12.29109000      -0.01579000       0.02106600       0.11230100
Pt       1.40300000       0.81002000      12.29109000       0.02149600      -0.02187100       0.06159300
Pt       4.20900000       2.43007000      10.00000000       0.01513700      -0.03489600      -0.19694800
Pt       1.40300000       2.43007000      10.00000000      -0.00142700       0.01346700      -0.14975000
Pt       2.80600000       0.00000000      10.00000000       0.01513700      -0.03489600      -0.19694800
Pt       7.01499000       4.05011000      14.58218000       0.06098600       0.23504800      -0.53533600
Pt       4.20900000       4.05011000      14.58218000      -0.07603300      -0.00108600      -0.74666600
24
Lattice="5.611995395 0.0 0.0 2.805997698 4.860130578 0.0 0.0 0.0 29.428262579" Properties=species:S:1:pos:R:3:forces:R:3 energy=-154.2612221 pbc="T T T"
C        7.01499000       4.05011000      18.27026000      -0.00000000      -0.00000000      -1.85816100
C        2.80600000       1.62004000      18.27026000       0.00000000       0.00000000      -1.85816100
C        4.20900000       4.05011000      18.27026000       0.00000000       0.00000000      -1.85816100
C        5.61200000       1.62004000      18.27026000       0.00000000       0.00000000      -1.85816100
O        5.61200000       1.62004000      19.42826000      -0.00000000       0.00000000       2.28961900
O        7.01499000       4.05011000      19.42826000      -0.00000000       0.00000000       2.28961900
O        2.80600000       1.62004000      19.42826000      -0.00000000      -0.00000000       2.28961900
O        4.20900000       4.05011000      19.42826000      -0.00000000       0.00000000       2.28961900
Pt       4.20900000       2.43007000      16.87326000       0.00000000       0.00000000       0.48783500
Pt       1.40300000       2.43007000      16.87326000       0.00000000       0.00000000       0.48783500
Pt       2.80600000       0.00000000      16.87326000       0.00000000       0.00000000       0.48783500
Pt       0.00000000       0.00000000      16.87326000       0.00000000       0.00000000       0.48783500
Pt       0.00000000       0.00000000      10.00000000       0.00000000       0.00000000      -0.20919800
Pt       2.80600000       1.62004000      14.58218000       0.00000000       0.00000000      -0.78067700
Pt       5.61200000       1.62004000      14.58218000       0.00000000       0.00000000      -0.78067700
Pt       5.61200000       3.24009000      12.29109000       0.00000000      -0.00000000       0.07058100
Pt       2.80600000       3.24009000      12.29109000       0.00000000      -0.00000000       0.07058100
Pt       4.20900000       0.81002000      12.29109000       0.00000000      -0.00000000       0.07058100
Pt       1.40300000       0.81002000      12.29109000       0.00000000       0.00000000       0.07058100
Pt       4.20900000       2.43007000      10.00000000       0.00000000       0.00000000      -0.20919800
Pt       1.40300000       2.43007000      10.00000000       0.00000000       0.00000000      -0.20919800
Pt       2.80600000       0.00000000      10.00000000       0.00000000      -0.00000000      -0.20919800
Pt       7.01499000       4.05011000      14.58218000       0.00000000      -0.00000000      -0.78067700
Pt       4.20900000       4.05011000      14.58218000       0.00000000       0.00000000      -0.78067700
24
Lattice="5.611995395 0.0 0.0 2.805997698 4.860130578 0.0 0.0 0.0 29.657262579" Properties=species:S:1:pos:R:3:forces:R:3 energy=-149.86207829 pbc="T T T"
C        2.80600000       3.24009000      18.27026000      -0.00000000      -3.53027300      -2.77153400
C        4.20900000       0.00000000      18.49926000       0.00000000       3.99947300      -1.59521200
C        1.40300000       0.00000000      18.49926000       0.00000000       3.99947300      -1.59521200
C        5.61200000       3.24009000      18.27026000      -0.00000000      -3.53027300      -2.77153400
O        5.61200000       3.24009000      19.42826000      -0.00000000      -3.56636900       2.74768600
O        2.80600000       3.24009000      19.42826000      -0.00000000      -3.56636900       2.74768600
O        4.20900000       0.00000000      19.65726000       0.00000000       2.68641300       0.53068800
O        1.40300000       0.00000000      19.65726000       0.00000000       2.68641300       0.53068800
Pt       4.20900000       2.43007000      16.87326000       0.00000000      -0.21070300       0.37914900
Pt       1.40300000       2.43007000      16.87326000       0.00000000      -0.21070300       0.37914900
Pt       2.80600000       0.00000000      16.87326000       0.00000000       0.54714400       1.88815400
Pt       0.00000000       0.00000000      16.87326000       0.00000000       0.54714400       1.88815400
Pt       0.00000000       0.00000000      10.00000000       0.00000000      -0.02176900      -0.23985400
Pt       2.80600000       1.62004000      14.58218000       0.00000000      -0.09568700      -0.23612700
Pt       5.61200000       1.62004000      14.58218000       0.00000000      -0.09568700      -0.23612700
Pt       5.61200000       3.24009000      12.29109000       0.00000000       0.02777200       0.19151000
Pt       2.80600000       3.24009000      12.29109000       0.00000000       0.02777200       0.19151000
Pt       4.20900000       0.81002000      12.29109000       0.00000000      -0.09305800       0.04263900
Pt       1.40300000       0.81002000      12.29109000       0.00000000      -0.09305800       0.04263900
Pt       4.20900000       2.43007000      10.00000000       0.00000000      -0.00367600      -0.13919200
Pt       1.40300000       2.43007000      10.00000000       0.00000000      -0.00367600      -0.13919200
Pt       2.80600000       0.00000000      10.00000000       0.00000000      -0.02176900      -0.23985400
Pt       7.01499000       4.05011000      14.58218000       0.00000000       0.26073200      -0.79790800
Pt       4.20900000       4.05011000      14.58218000       0.00000000       0.26073200      -0.79790800
24
Lattice="5.611995395 0.0 0.0 2.805997698 4.860130578 0.0 0.0 0.0 29.886262579" Properties=species:S:1:pos:R:3:forces:R:3 energy=-155.3235627 pbc="T T T"
C        4.20900000       2.43007000      18.72826000      -0.00000000      -0.00000000      -0.21481100
C        2.80600000       0.00000000      18.72826000      -0.00000000      -0.00000000      -0.21481100
C        1.40300000       2.43007000      18.72826000       0.00000000      -0.00000000      -0.21481100
C        0.00000000       0.00000000      18.72826000       0.00000000      -0.00000000      -0.21481100
O        0.00000000       0.00000000      19.88626000       0.00000000      -0.00000000       0.27925000
O        4.20900000       2.43007000      19.88626000       0.00000000      -0.00000000       0.27925000
O        2.80600000       0.00000000      19.88626000      -0.00000000       0.00000000       0.27925000
O        1.40300000       2.43007000      19.88626000       0.00000000       0.00000000       0.27925000
Pt       4.20900000       2.43007000      16.87326000      -0.00000000       0.00000000       0.43718600
Pt       1.40300000       2.43007000      16.87326000      -0.00000000       0.00000000       0.43718600
Pt       2.80600000       0.00000000      16.87326000      -0.00000000       0.00000000       0.43718600
Pt       0.00000000       0.00000000      16.87326000      -0.00000000       0.00000000       0.43718600
Pt       0.00000000       0.00000000      10.00000000      -0.00000000       0.00000000      -0.24060400
Pt       2.80600000       1.62004000      14.58218000      -0.00000000       0.00000000      -0.37041000
Pt       5.61200000       1.62004000      14.58218000      -0.00000000       0.00000000      -0.37041000
Pt       5.61200000       3.24009000      12.29109000      -0.00000000       0.00000000       0.10938900
Pt       2.80600000       3.24009000      12.29109000      -0.00000000       0.00000000       0.10938900
Pt       4.20900000       0.81002000      12.29109000      -0.00000000       0.00000000       0.10938900
Pt       1.40300000       0.81002000      12.29109000      -0.00000000       0.00000000       0.10938900
Pt       4.20900000       2.43007000      10.00000000      -0.00000000       0.00000000      -0.24060400
Pt       1.40300000       2.43007000      10.00000000      -0.00000000       0.00000000      -0.24060400
Pt       2.80600000       0.00000000      10.00000000      -0.00000000       0.00000000      -0.24060400
Pt       7.01499000       4.05011000      14.58218000      -0.00000000       0.00000000      -0.37041000
Pt       4.20900000       4.05011000      14.58218000      -0.00000000       0.00000000      -0.37041000
24
Lattice="5.611995395 0.0 0.0 2.805997698 4.860130578 0.0 0.0 0.0 29.428262579" Properties=species:S:1:pos:R:3:forces:R:3 energy=-154.57352895 pbc="T T T"
C        1.40300000       0.81002000      18.27026000       0.00000000       0.00000000      -1.98842800
C        4.20900000       0.81002000      18.27026000      -0.00000000       0.00000000      -1.98842800
C        2.80600000       3.24009000      18.27026000      -0.00000000       0.00000000      -1.98842800
C        5.61200000       3.24009000      18.27026000       0.00000000       0.00000000      -1.98842800
O        5.61200000       3.24009000      19.42826000      -0.00000000      -0.00000000       2.32703000
O        1.40300000       0.81002000      19.42826000      -0.00000000      -0.00000000       2.32703000
O        4.20900000       0.81002000      19.42826000       0.00000000      -0.00000000       2.32703000
O        2.80600000       3.24009000      19.42826000      -0.00000000       0.00000000       2.32703000
Pt       4.20900000       2.43007000      16.87326000       0.00000000       0.00000000       0.46418500
Pt       1.40300000       2.43007000      16.87326000       0.00000000       0.00000000       0.46418500
Pt       2.80600000       0.00000000      16.87326000       0.00000000       0.00000000       0.46418500
Pt       0.00000000       0.00000000      16.87326000       0.00000000       0.00000000       0.46418500
Pt       0.00000000       0.00000000      10.00000000       0.00000000      -0.00000000      -0.21007800
Pt       2.80600000       1.62004000      14.58218000       0.00000000       0.00000000      -0.67196500
Pt       5.61200000       1.62004000      14.58218000       0.00000000      -0.00000000      -0.67196500
Pt       5.61200000       3.24009000      12.29109000       0.00000000      -0.00000000       0.07925700
Pt       2.80600000       3.24009000      12.29109000       0.00000000      -0.00000000       0.07925700
Pt       4.20900000       0.81002000      12.29109000       0.00000000      -0.00000000       0.07925700
Pt       1.40300000       0.81002000      12.29109000       0.00000000      -0.00000000       0.07925700
Pt       4.20900000       2.43007000      10.00000000       0.00000000      -0.00000000      -0.21007800
Pt       1.40300000       2.43007000      10.00000000       0.00000000      -0.00000000      -0.21007800
Pt       2.80600000       0.00000000      10.00000000       0.00000000      -0.00000000      -0.21007800
Pt       7.01499000       4.05011000      14.58218000       0.00000000       0.00000000      -0.67196500
Pt       4.20900000       4.05011000      14.58218000       0.00000000       0.00000000      -0.67196500
24
Lattice="5.611995395 0.0 0.0 2.805997698 4.860130578 0.0 0.0 0.0 29.657262579" Properties=species:S:1:pos:R:3:forces:R:3 energy=-152.35764447 pbc="T T T"
C        4.20900000       0.00000000      18.49926000       0.00000000       3.73568900      -1.16935900
C        5.61200000       3.24009000      18.27026000      -1.24883700      -1.75610200      -2.43155600
C        1.40300000       0.81002000      18.27026000      -0.00000000       0.19343700      -2.41993000
C        2.80600000       3.24009000      18.27026000       1.24883700      -1.75610200      -2.43155600
O        2.80600000       3.24009000      19.42826000       1.58368800      -1.79423900       2.53253200
O        4.20900000       0.00000000      19.65726000      -0.00000000       2.76093200       0.44744100
O        5.61200000       3.24009000      19.42826000      -1.58368800      -1.79423900       2.53253200
O        1.40300000       0.81002000      19.42826000      -0.00000000      -0.01082300       2.44975900
Pt       4.20900000       2.43007000      16.87326000      -0.00000000       0.26901900       0.55303900
Pt       1.40300000       2.43007000      16.87326000      -0.00000000      -0.51114200       0.35357500
Pt       2.80600000       0.00000000      16.87326000       0.46131000       0.29428200       1.20397000
Pt       0.00000000       0.00000000      16.87326000      -0.46131000       0.29428200       1.20397000
Pt       0.00000000       0.00000000      10.00000000      -0.01713500      -0.01302800      -0.21326000
Pt       2.80600000       1.62004000      14.58218000       0.01374400      -0.04618900      -0.45346900
Pt       5.61200000       1.62004000      14.58218000      -0.01374400      -0.04618900      -0.45346900
Pt       5.61200000       3.24009000      12.29109000      -0.01428800       0.02167100       0.12698500
Pt       2.80600000       3.24009000      12.29109000       0.01428800       0.02167100       0.12698500
Pt       4.20900000       0.81002000      12.29109000      -0.00000000      -0.02422300       0.05237100
Pt       1.40300000       0.81002000      12.29109000      -0.00000000      -0.06573600       0.02776900
Pt       4.20900000       2.43007000      10.00000000      -0.00000000       0.00297600      -0.16026600
Pt       1.40300000       2.43007000      10.00000000      -0.00000000      -0.01183600      -0.15163700
Pt       2.80600000       0.00000000      10.00000000       0.01713500      -0.01302800      -0.21326000
Pt       7.01499000       4.05011000      14.58218000      -0.00000000      -0.02773200      -0.77095200
Pt       4.20900000       4.05011000      14.58218000      -0.00000000       0.27665000      -0.74221400
24
Lattice="5.611995395 0.0 0.0 2.805997698 4.860130578 0.0 0.0 0.0 29.657262579" Properties=species:S:1:pos:R:3:forces:R:3 energy=-152.37568787 pbc="T T T"
C        4.20900000       0.81002000      18.27026000      -1.38241900      -1.65441100      -2.74000300
C        5.61200000       2.43007000      18.49926000       2.04081700       1.82959900      -1.59642200
C        1.40300000       0.00000000      18.49926000       2.04081700       1.82959900      -1.59642200
C        2.80600000       3.24009000      18.27026000      -1.38241900      -1.65441100      -2.74000300
O        2.80600000       3.24009000      19.42826000      -1.57484200      -1.79316400       2.59899200
O        4.20900000       0.81002000      19.42826000      -1.57484200      -1.79316400       2.59899200
O        5.61200000       2.43007000      19.65726000       1.11863000       1.43640600       0.72652900
O        1.40300000       0.00000000      19.65726000       1.11863000       1.43640600       0.72652900
Pt       4.20900000       2.43007000      16.87326000       0.32990300      -0.13920600       0.95716900
Pt       1.40300000       2.43007000      16.87326000      -0.56527900       0.14508500       1.37993800
Pt       2.80600000       0.00000000      16.87326000      -0.56527900       0.14508500       1.37993800
Pt       0.00000000       0.00000000      16.87326000       0.32990300      -0.13920600       0.95716900
Pt       0.00000000       0.00000000      10.00000000       0.02453200      -0.00936600      -0.17482800
Pt       2.80600000       1.62004000      14.58218000       0.00908900       0.25905800      -0.58233000
Pt       5.61200000       1.62004000      14.58218000       0.02665600      -0.03470000      -0.56620700
Pt       5.61200000       3.24009000      12.29109000       0.01393000      -0.00624100       0.10876600
Pt       2.80600000       3.24009000      12.29109000      -0.02188000      -0.02220800       0.07145600
Pt       4.20900000       0.81002000      12.29109000      -0.02188000      -0.02220800       0.07145600
Pt       1.40300000       0.81002000      12.29109000       0.01393000      -0.00624100       0.10876600
Pt       4.20900000       2.43007000      10.00000000       0.02453200      -0.00936600      -0.17482800
Pt       1.40300000       2.43007000      10.00000000      -0.01913800      -0.01085300      -0.18305900
Pt       2.80600000       0.00000000      10.00000000      -0.01913800      -0.01085300      -0.18305900
Pt       7.01499000       4.05011000      14.58218000       0.00908900       0.25905800      -0.58233000
Pt       4.20900000       4.05011000      14.58218000       0.02665600      -0.03470000      -0.56620700
24
Lattice="5.611995395 0.0 0.0 2.805997698 4.860130578 0.0 0.0 0.0 29.657262579" Properties=species:S:1:pos:R:3:forces:R:3 energy=-154.28293581 pbc="T T T"
C        1.40300000       0.00000000      18.49926000       0.00000000       0.09838600      -2.47375800
C        5.61200000       2.43007000      18.49926000       0.00000000       0.09838600      -2.47375800
C        2.80600000       2.43007000      18.49926000       0.00000000       0.09838600      -2.47375800
C        4.20900000       0.00000000      18.49926000       0.00000000       0.09838600      -2.47375800
O        4.20900000       0.00000000      19.65726000      -0.00000000      -0.02302000       1.07367600
O        1.40300000       0.00000000      19.65726000      -0.00000000      -0.02302000       1.07367600
O        5.61200000       2.43007000      19.65726000      -0.00000000      -0.02302000       1.07367600
O        2.80600000       2.43007000      19.65726000      -0.00000000      -0.02302000       1.07367600
Pt       4.20900000       2.43007000      16.87326000       0.00000000      -0.29290700       1.99939200
Pt       1.40300000       2.43007000      16.87326000       0.00000000      -0.29290700       1.99939200
Pt       2.80600000       0.00000000      16.87326000       0.00000000      -0.29290700       1.99939200
Pt       0.00000000       0.00000000      16.87326000       0.00000000      -0.29290700       1.99939200
Pt       0.00000000       0.00000000      10.00000000      -0.00000000      -0.01432600      -0.19084100
Pt       2.80600000       1.62004000      14.58218000      -0.00000000       0.25394700      -0.53205300
Pt       5.61200000       1.62004000      14.58218000      -0.00000000       0.25394700      -0.53205300
Pt       5.61200000       3.24009000      12.29109000       0.00000000      -0.02207900       0.12358500
Pt       2.80600000       3.24009000      12.29109000       0.00000000      -0.02207900       0.12358500
Pt       4.20900000       0.81002000      12.29109000       0.00000000      -0.02207900       0.12358500
Pt       1.40300000       0.81002000      12.29109000       0.00000000      -0.02207900       0.12358500
Pt       4.20900000       2.43007000      10.00000000      -0.00000000      -0.01432600      -0.19084100
Pt       1.40300000       2.43007000      10.00000000      -0.00000000      -0.01432600      -0.19084100
Pt       2.80600000       0.00000000      10.00000000      -0.00000000      -0.01432600      -0.19084100
Pt       7.01499000       4.05011000      14.58218000      -0.00000000       0.25394700      -0.53205300
Pt       4.20900000       4.05011000      14.58218000      -0.00000000       0.25394700      -0.53205300
24
Lattice="5.611995395 0.0 0.0 2.805997698 4.860130578 0.0 0.0 0.0 29.657262579" Properties=species:S:1:pos:R:3:forces:R:3 energy=-152.16856126 pbc="T T T"
C        2.80600000       2.43007000      18.49926000       2.08811100       2.03703800      -1.94790500
C        4.20900000       0.00000000      18.49926000      -0.00000000      -0.07742900      -2.12322000
C        1.40300000       0.81002000      18.27026000      -0.00000000      -3.52965900      -2.97993000
C        5.61200000       2.43007000      18.49926000      -2.08811100       2.03703800      -1.94790500
O        5.61200000       2.43007000      19.65726000      -1.04900000       1.38303700       0.78151000
O        2.80600000       2.43007000      19.65726000       1.04900000       1.38303700       0.78151000
O        4.20900000       0.00000000      19.65726000      -0.00000000       0.01160100       1.03941800
O        1.40300000       0.81002000      19.42826000      -0.00000000      -3.54133300       2.75203600
Pt       4.20900000       2.43007000      16.87326000      -0.00000000       0.04433500       2.28482400
Pt       1.40300000       2.43007000      16.87326000      -0.00000000       0.17995300       1.49414300
Pt       2.80600000       0.00000000      16.87326000       0.42522400      -0.23850100       1.13672100
Pt       0.00000000       0.00000000      16.87326000      -0.42522400      -0.23850100       1.13672100
Pt       0.00000000       0.00000000      10.00000000      -0.01908600      -0.01339400      -0.15988800
Pt       2.80600000       1.62004000      14.58218000       0.01666800       0.26255000      -0.69484900
Pt       5.61200000       1.62004000      14.58218000      -0.01666800       0.26255000      -0.69484900
Pt       5.61200000       3.24009000      12.29109000      -0.02427600      -0.04452700       0.07345800
Pt       2.80600000       3.24009000      12.29109000       0.02427600      -0.04452700       0.07345800
Pt       4.20900000       0.81002000      12.29109000      -0.00000000       0.00412700       0.14786800
Pt       1.40300000       0.81002000      12.29109000      -0.00000000      -0.00227200       0.15010500
Pt       4.20900000       2.43007000      10.00000000      -0.00000000      -0.02420000      -0.22380900
Pt       1.40300000       2.43007000      10.00000000      -0.00000000      -0.00957600      -0.20414500
Pt       2.80600000       0.00000000      10.00000000       0.01908600      -0.01339400      -0.15988800
Pt       7.01499000       4.05011000      14.58218000      -0.00000000      -0.04050100      -0.35606900
Pt       4.20900000       4.05011000      14.58218000      -0.00000000       0.21254600      -0.35931400
24
Lattice="5.611995395 0.0 0.0 2.805997698 4.860130578 0.0 0.0 0.0 29.886262579" Properties=species:S:1:pos:R:3:forces:R:3 energy=-153.83293565 pbc="T T T"
C        1.40300000       0.00000000      18.49926000      -0.00000000       0.07458600      -3.11773200
C        1.40300000       2.43007000      18.72826000       0.00000000       0.03362500       0.51006200
C        4.20900000       0.00000000      18.49926000      -0.00000000       0.07458600      -3.11773200
C        4.20900000       2.43007000      18.72826000       0.00000000       0.03362500       0.51006200
O        4.20900000       2.43007000      19.88626000       0.00000000      -0.01794800      -0.06299000
O        1.40300000       0.00000000      19.65726000       0.00000000      -0.00862700       1.33707100
O        1.40300000       2.43007000      19.88626000       0.00000000      -0.01794800      -0.06299000
O        4.20900000       0.00000000      19.65726000       0.00000000      -0.00862700       1.33707100
Pt       4.20900000       2.43007000      16.87326000      -0.00000000       0.05806500       0.33192600
Pt       1.40300000       2.43007000      16.87326000      -0.00000000       0.05806500       0.33192600
Pt       2.80600000       0.00000000      16.87326000      -0.00000000      -0.32241400       2.11184800
Pt       0.00000000       0.00000000      16.87326000      -0.00000000      -0.32241400       2.11184800
Pt       0.00000000       0.00000000      10.00000000       0.00000000      -0.01036800      -0.19179800
Pt       2.80600000       1.62004000      14.58218000      -0.00000000       0.19599500      -0.55837600
Pt       5.61200000       1.62004000      14.58218000      -0.00000000       0.19599500      -0.55837600
Pt       5.61200000       3.24009000      12.29109000       0.00000000      -0.04031900       0.07973300
Pt       2.80600000       3.24009000      12.29109000       0.00000000      -0.04031900       0.07973300
Pt       4.20900000       0.81002000      12.29109000       0.00000000       0.01949600       0.13973400
Pt       1.40300000       0.81002000      12.29109000       0.00000000       0.01949600       0.13973400
Pt       4.20900000       2.43007000      10.00000000       0.00000000       0.00065800      -0.25174500
Pt       1.40300000       2.43007000      10.00000000       0.00000000       0.00065800      -0.25174500
Pt       2.80600000       0.00000000      10.00000000       0.00000000      -0.01036800      -0.19179800
Pt       7.01499000       4.05011000      14.58218000       0.00000000       0.01725000      -0.32773500
Pt       4.20900000       4.05011000      14.58218000       0.00000000       0.01725000      -0.32773500
