24
Lattice="5.611995395 0.0 0.0 4.208996546 7.290195867 0.0 0.0 0.0 26.873262579" Properties=species:S:1:pos:R:3:forces:R:3 energy=-139.00676143 pbc="T T T"
Pt       0.00000000       0.00000000      10.00000000       0.00000100       0.00000100      -0.01908400
Pt       4.20900000       2.43007000      16.87326000      -0.00000100      -0.00000100       0.01908400
Pt       1.40300000       2.43007000      16.87326000      -0.00000100      -0.00000100       0.01908400
Pt       2.80600000       0.00000000      16.87326000      -0.00000100      -0.00000100       0.01908400
Pt       0.00000000       0.00000000      16.87326000      -0.00000100      -0.00000100       0.01908400
Pt       5.61200000       6.48017000      14.58218000      -0.00000200      -0.00000100      -0.19362500
Pt       8.41799000       6.48017000      14.58218000      -0.00000200      -0.00000100      -0.19362500
Pt       4.20900000       4.05011000      14.58218000      -0.00000200      -0.00000100      -0.19362500
Pt       7.01499000       4.05011000      14.58218000      -0.00000200      -0.00000100      -0.19362500
Pt       2.80600000       1.62004000      14.58218000      -0.00000200      -0.00000100      -0.19362500
Pt       5.61200000       1.62004000      14.58218000      -0.00000200      -0.00000100      -0.19362500
Pt       7.01499000       5.67015000      12.29109000       0.00000200       0.00000100       0.19362500
Pt       4.20900000       5.67015000      12.29109000       0.00000200       0.00000100       0.19362500
Pt       5.61200000       3.24009000      12.29109000       0.00000200       0.00000100       0.19362500
Pt       2.80600000       3.24009000      12.29109000       0.00000200       0.00000100       0.19362500
Pt       4.20900000       0.81002000      12.29109000       0.00000200       0.00000100       0.19362500
Pt       1.40300000       0.81002000      12.29109000       0.00000200       0.00000100       0.19362500
Pt       5.61200000       4.86013000      10.00000000       0.00000100       0.00000100      -0.01908400
Pt       2.80600000       4.86013000      10.00000000       0.00000100       0.00000100      -0.01908400
Pt       4.20900000       2.43007000      10.00000000       0.00000100       0.00000100      -0.01908400
Pt       1.40300000       2.43007000      10.00000000       0.00000100       0.00000100      -0.01908400
Pt       2.80600000       0.00000000      10.00000000       0.00000100       0.00000100      -0.01908400
Pt       2.80600000       4.86013000      16.87326000      -0.00000100      -0.00000100       0.01908400
Pt       5.61200000       4.86013000      16.87326000      -0.00000100      -0.00000100       0.01908400
