46
Lattice="5.611995395 0.0 0.0 5.611995395 9.720261156 0.0 0.0 0.0 29.886262579" Properties=species:S:1:pos:R:3:forces:R:3 energy=-294.13787986 pbc="T T T"
C        5.61200000       7.29020000      18.49926000       0.00000000      -0.20130600      -2.81535200
C        0.00000000       0.00000000      18.72826000       0.00000000       0.03320400       0.80492600
C        5.61200000       2.43007000      18.49926000       0.00000000       0.11149900      -3.04288600
C        8.41799000       8.10022000      18.27026000       0.00000000       0.45483100      -3.65179600
C        2.80600000       2.43007000      18.49926000       0.00000000      -1.15717200      -3.04617300
C        2.80600000       4.86013000      18.72826000       0.00000000       0.97706000       0.39029400
C        5.61200000       4.86013000      18.72826000       0.00000000       0.05226300       0.57683200
O        8.41799000       8.10022000      19.42826000       0.00000000       0.06980200       3.35501600
O        5.61200000       7.29020000      19.65726000       0.00000000       0.00651200       1.22294200
O        2.80600000       4.86013000      19.88626000       0.00000000       0.71232500      -0.07985000
O        2.80600000       2.43007000      19.65726000      -0.00000000      -0.77593400       1.38771400
O        5.61200000       2.43007000      19.65726000       0.00000000      -0.02636700       1.21516000
O        5.61200000       4.86013000      19.88626000       0.00000000      -0.01417000      -0.14589400
O        0.00000000       0.00000000      19.88626000       0.00000000       0.01533500      -0.28951100
Pt       7.01499000       8.91024000      14.58218000      -0.19583900       0.15959200      -0.61801700
Pt       7.01499000       7.29020000      16.87326000      -0.50997200      -0.04308900       1.25292300
Pt       4.20900000       7.29020000      16.87326000       0.50997200      -0.04308900       1.25292300
Pt       5.61200000       4.86013000      16.87326000      -0.00000000       0.21525600       0.22970500
Pt       2.80600000       4.86013000      16.87326000      -0.00000000       0.46224200       0.49068500
Pt       4.20900000       2.43007000      16.87326000      -0.10897600      -0.59060100       2.13407000
Pt       1.40300000       2.43007000      16.87326000       0.10897600      -0.59060100       2.13407000
Pt       2.80600000       0.00000000      16.87326000       0.00000000      -0.30246700       0.29586600
Pt       0.00000000       0.00000000      16.87326000       0.00000000       0.06963900       0.31696200
Pt       0.00000000       0.00000000      10.00000000       0.00000000       0.02670900      -0.27192900
Pt       8.41799000       6.48017000      14.58218000       0.00000000       0.06975200      -0.19662400
Pt       2.80600000       0.00000000      10.00000000       0.00000000       0.01237400      -0.21981500
Pt       1.40300000       2.43007000      10.00000000       0.00084000      -0.01619600      -0.18583500
Pt       4.20900000       2.43007000      10.00000000      -0.00084000      -0.01619600      -0.18583500
Pt       2.80600000       4.86013000      10.00000000       0.00000000       0.00386000      -0.21976200
Pt       5.61200000       4.86013000      10.00000000       0.00000000       0.00429500      -0.21319800
Pt       4.20900000       7.29020000      10.00000000       0.02595000      -0.00093800      -0.14040900
Pt       7.01499000       7.29020000      10.00000000      -0.02595000      -0.00093800      -0.14040900
Pt       1.40300000       0.81002000      12.29109000       0.01376600      -0.03178600       0.09200600
Pt       4.20900000       0.81002000      12.29109000      -0.01376600      -0.03178600       0.09200600
Pt       2.80600000       3.24009000      12.29109000       0.00000000       0.04026800       0.09760200
Pt       5.61200000       3.24009000      12.29109000       0.00000000       0.01367400       0.12576000
Pt       4.20900000       5.67015000      12.29109000      -0.00434200      -0.07229800       0.07544300
Pt       7.01499000       5.67015000      12.29109000       0.00434200      -0.07229800       0.07544300
Pt       5.61200000       8.10022000      12.29109000       0.00000000       0.06373900       0.18445000
Pt       8.41799000       8.10022000      12.29109000       0.00000000       0.01434200       0.14279500
Pt       5.61200000       1.62004000      14.58218000       0.00000000      -0.08137800      -0.34472200
Pt       2.80600000       1.62004000      14.58218000       0.00000000       0.13051400      -0.14576400
Pt       7.01499000       4.05011000      14.58218000      -0.01228900       0.17611600      -0.52138400
Pt       4.20900000       4.05011000      14.58218000       0.01228900       0.17611600      -0.52138400
Pt       5.61200000       6.48017000      14.58218000       0.00000000      -0.16229900      -0.33102400
Pt       9.82099000       8.91024000      14.58218000       0.19583900       0.15959200      -0.61801700
46
Lattice="5.611995395 0.0 0.0 5.611995395 9.720261156 0.0 0.0 0.0 29.657262579" Properties=species:S:1:pos:R:3:forces:R:3 energy=-289.85506957 pbc="T T T"
C        5.61200000       3.24009000      18.27026000      -0.98885000      -1.21402900      -2.57452600
C        4.20900000       0.81002000      18.27026000       0.78479900      -2.35273600      -2.58259400
C        2.80600000       2.43007000      18.49926000       0.17339300       3.35127800      -1.21194300
C        7.01499000       4.86013000      18.49926000       2.05441700       1.98853000      -1.65203800
C        5.61200000       7.29020000      18.49926000       1.85054000       2.54116800      -2.19635400
C        1.40300000       0.81002000      18.27026000      -0.77133100      -2.37905500      -2.63226600
C        4.20900000       5.67015000      18.27026000      -1.66901000      -0.82082100      -2.90681500
O        7.01499000       4.86013000      19.65726000       1.12360200       1.43228900       0.68826900
O        5.61200000       3.24009000      19.42826000      -1.58784700      -1.73127100       2.45399400
O        1.40300000       0.81002000      19.42826000      -1.57229100      -1.85474600       2.62440800
O        5.61200000       7.29020000      19.65726000       1.10465700       1.48176700       0.98978100
O        2.80600000       2.43007000      19.65726000       0.04616000       2.68659500       0.43517500
O        4.20900000       5.67015000      19.42826000      -1.60964900      -1.77829800       2.69137300
O        4.20900000       0.81002000      19.42826000       1.57722200      -1.86913900       2.59655100
Pt       7.01499000       8.91024000      14.58218000       0.03108700       0.09207600      -0.35626600
Pt       7.01499000       7.29020000      16.87326000      -0.57531700       0.22317600       1.01345600
Pt       4.20900000       7.29020000      16.87326000       0.17468300       0.26293400       1.21571600
Pt       5.61200000       4.86013000      16.87326000       0.38481400      -0.02629400       0.96514300
Pt       2.80600000       4.86013000      16.87326000      -0.63816800       0.41115100       1.44398100
Pt       4.20900000       2.43007000      16.87326000      -0.40111400       0.29609100       1.24289900
Pt       1.40300000       2.43007000      16.87326000       0.42450000      -0.08746800       0.93062300
Pt       2.80600000       0.00000000      16.87326000      -0.00682100      -0.86575900       0.49906100
Pt       0.00000000       0.00000000      16.87326000       0.02839300      -0.11125800       0.67243400
Pt       0.00000000       0.00000000      10.00000000      -0.01350100      -0.02016100      -0.18867100
Pt       8.41799000       6.48017000      14.58218000      -0.01835100       0.37954700      -0.27482500
Pt       2.80600000       0.00000000      10.00000000       0.01729100       0.00846900      -0.16473900
Pt       1.40300000       2.43007000      10.00000000       0.01126600      -0.02297300      -0.17520700
Pt       4.20900000       2.43007000      10.00000000      -0.00173300      -0.01919300      -0.19435100
Pt       2.80600000       4.86013000      10.00000000       0.00664000       0.02079000      -0.04726300
Pt       5.61200000       4.86013000      10.00000000       0.00637500      -0.02058300      -0.13751200
Pt       4.20900000       7.29020000      10.00000000       0.01583800       0.00195300      -0.22289600
Pt       7.01499000       7.29020000      10.00000000      -0.01449700       0.00005900      -0.18029900
Pt       1.40300000       0.81002000      12.29109000      -0.01587100      -0.06723100       0.12364100
Pt       4.20900000       0.81002000      12.29109000       0.00560300       0.00032400       0.10679500
Pt       2.80600000       3.24009000      12.29109000       0.02410400      -0.08878700       0.12947300
Pt       5.61200000       3.24009000      12.29109000      -0.02529500      -0.03600600       0.06803900
Pt       4.20900000       5.67015000      12.29109000       0.03683400       0.07192300       0.17746700
Pt       7.01499000       5.67015000      12.29109000      -0.01684000       0.03695400       0.14768900
Pt       5.61200000       8.10022000      12.29109000      -0.01470400      -0.00663800       0.02751000
Pt       8.41799000       8.10022000      12.29109000       0.01820500      -0.07634700       0.05212400
Pt       5.61200000       1.62004000      14.58218000       0.01816600       0.26045600      -0.72343900
Pt       2.80600000       1.62004000      14.58218000      -0.00171500       0.16349700      -0.87259000
Pt       7.01499000       4.05011000      14.58218000       0.00203700      -0.04144400      -0.55387300
Pt       4.20900000       4.05011000      14.58218000       0.00684700       0.07351300      -0.36837500
Pt       5.61200000       6.48017000      14.58218000       0.04893700      -0.21744400      -0.85224200
Pt       9.82099000       8.91024000      14.58218000      -0.03350500      -0.07686000      -0.22651900
46
Lattice="5.611995395 0.0 0.0 5.611995395 9.720261156 0.0 0.0 0.0 29.886262579" Properties=species:S:1:pos:R:3:forces:R:3 energy=-290.76376829 pbc="T T T"
C        4.20900000       5.67015000      18.27026000       1.00965400      -2.19003700      -2.97365500
C        7.01499000       4.86013000      18.49926000      -0.18806000      -0.80155200      -2.54473600
C        4.20900000       2.43007000      18.72826000      -0.00181400       0.95363300       0.51795000
C        1.40300000       0.00000000      18.49926000       1.87610500       2.64134500      -2.24315500
C        4.20900000       0.00000000      18.49926000      -1.85829700       1.37801400      -2.15206100
C        5.61200000       8.10022000      18.27026000       0.35390000      -3.02678500      -2.88631500
C        8.41799000       7.29020000      18.49926000      -1.85848200       1.44715200      -1.76366200
O        1.40300000       0.00000000      19.65726000       0.99438600       1.45631400       0.96863900
O        4.20900000       5.67015000      19.42826000       1.59542000      -1.82903800       2.78447900
O        5.61200000       8.10022000      19.42826000       0.00243300      -3.48019200       2.67886400
O        4.20900000       0.00000000      19.65726000      -0.99917300       0.70017800       0.82142700
O        4.20900000       2.43007000      19.88626000       0.00344600       0.73649300      -0.19820100
O        8.41799000       7.29020000      19.65726000      -1.06750200       1.35491000       0.78497900
O        7.01499000       4.86013000      19.65726000      -0.04336600      -0.05311700       1.25688800
Pt       7.01499000       8.91024000      14.58218000       0.02990300       0.30976000      -0.65589600
Pt       7.01499000       7.29020000      16.87326000       0.57681000      -0.30503900       1.14162800
Pt       4.20900000       7.29020000      16.87326000      -0.34459100      -0.13522300       0.99165700
Pt       5.61200000       4.86013000      16.87326000       0.63918800      -0.26904500       1.47033400
Pt       2.80600000       4.86013000      16.87326000      -0.67151200      -0.69705200       1.16526100
Pt       4.20900000       2.43007000      16.87326000      -0.05853100       0.59623200       0.56544500
Pt       1.40300000       2.43007000      16.87326000       0.03042400       0.15739400      -0.41948100
Pt       2.80600000       0.00000000      16.87326000      -0.15843500       0.12404700       2.20761200
Pt       0.00000000       0.00000000      16.87326000       0.19043900       0.59868300       1.70085400
Pt       0.00000000       0.00000000      10.00000000      -0.04450200      -0.00332300      -0.14691300
Pt       8.41799000       6.48017000      14.58218000      -0.04173300       0.14884300      -0.63507400
Pt       2.80600000       0.00000000      10.00000000       0.04272500      -0.00667300      -0.13093200
Pt       1.40300000       2.43007000      10.00000000      -0.01940700      -0.00454600      -0.16232000
Pt       4.20900000       2.43007000      10.00000000       0.01425200       0.02190300      -0.25476400
Pt       2.80600000       4.86013000      10.00000000      -0.00585800       0.00305900      -0.21234200
Pt       5.61200000       4.86013000      10.00000000       0.00415800      -0.00737000      -0.24582800
Pt       4.20900000       7.29020000      10.00000000      -0.00944700      -0.00317600      -0.19495600
Pt       7.01499000       7.29020000      10.00000000       0.00081200      -0.05417300      -0.16944000
Pt       1.40300000       0.81002000      12.29109000      -0.00274700       0.00996800       0.08542500
Pt       4.20900000       0.81002000      12.29109000      -0.00568300       0.12193400       0.24568200
Pt       2.80600000       3.24009000      12.29109000       0.01899300      -0.05676400       0.06007400
Pt       5.61200000       3.24009000      12.29109000      -0.01380600      -0.00857800       0.09254200
Pt       4.20900000       5.67015000      12.29109000       0.02695200      -0.02643500       0.08282800
Pt       7.01499000       5.67015000      12.29109000      -0.01872700      -0.16402300       0.17923700
Pt       5.61200000       8.10022000      12.29109000      -0.02696500       0.00544500       0.12608000
Pt       8.41799000       8.10022000      12.29109000       0.02933100      -0.05248600       0.14649500
Pt       5.61200000       1.62004000      14.58218000      -0.14075400      -0.07702800      -0.24509000
Pt       2.80600000       1.62004000      14.58218000       0.13866500       0.07175500      -0.38820200
Pt       7.01499000       4.05011000      14.58218000       0.00187700       0.15116000      -0.35775700
Pt       4.20900000       4.05011000      14.58218000      -0.00430000      -0.03421700      -0.20976200
Pt       5.61200000       6.48017000      14.58218000       0.02398100       0.26696100      -0.48483400
Pt       9.82099000       8.91024000      14.58218000      -0.02016100       0.03068800      -0.39900200
46
Lattice="5.611995395 0.0 0.0 5.611995395 9.720261156 0.0 0.0 0.0 29.657262579" Properties=species:S:1:pos:R:3:forces:R:3 energy=-291.05206896 pbc="T T T"
C        5.61200000       8.10022000      18.27026000      -0.44568500      -3.09999000      -2.78373800
C        8.41799000       7.29020000      18.49926000       2.15269400       0.93936300      -1.78890100
C        4.20900000       0.00000000      18.49926000      -1.68445300       2.01324100      -1.91388600
C        5.61200000       3.24009000      18.27026000      -0.21901900      -0.02211500      -2.91003900
C        1.40300000       0.00000000      18.49926000       1.66207600       2.08129100      -1.87267900
C        7.01499000       5.67015000      18.27026000      -0.72051800      -2.15186600      -2.99554500
C        2.80600000       2.43007000      18.49926000       0.00505700       0.69864900      -2.26728000
O        5.61200000       3.24009000      19.42826000      -0.05801700      -0.08373000       2.80389200
O        5.61200000       8.10022000      19.42826000       0.01154400      -3.47029600       2.55307000
O        7.01499000       5.67015000      19.42826000      -1.52488200      -1.80967000       2.72807700
O        1.40300000       0.00000000      19.65726000       0.95030300       1.38561400       0.74245100
O        4.20900000       0.00000000      19.65726000      -0.94383600       1.40148800       0.73334900
O        2.80600000       2.43007000      19.65726000      -0.00494800       0.17258900       0.99003700
O        8.41799000       7.29020000      19.65726000       1.11875500       1.30175000       0.78270900
Pt       7.01499000       8.91024000      14.58218000       0.03583500       0.09062700      -0.51444100
Pt       7.01499000       7.29020000      16.87326000       0.32423700      -0.35023700       0.97375400
Pt       4.20900000       7.29020000      16.87326000      -0.55143300      -0.76408400       1.39069400
Pt       5.61200000       4.86013000      16.87326000      -0.07924400      -0.04965900       0.73266000
Pt       2.80600000       4.86013000      16.87326000      -0.04221700       0.04861400       0.26068600
Pt       4.20900000       2.43007000      16.87326000      -0.64510400       0.45905000       1.35190900
Pt       1.40300000       2.43007000      16.87326000       0.62969900       0.20694100       1.25624300
Pt       2.80600000       0.00000000      16.87326000       0.00244700      -0.07200000       2.01953400
Pt       0.00000000       0.00000000      16.87326000       0.00771700       0.51640900       1.77624300
Pt       0.00000000       0.00000000      10.00000000       0.01153000      -0.00383500      -0.16509300
Pt       8.41799000       6.48017000      14.58218000       0.04455100       0.11238000      -0.55149400
Pt       2.80600000       0.00000000      10.00000000      -0.00645000      -0.03409100      -0.13573400
Pt       1.40300000       2.43007000      10.00000000      -0.01981800      -0.00548400      -0.17482000
Pt       4.20900000       2.43007000      10.00000000       0.02245400       0.02652800      -0.07793100
Pt       2.80600000       4.86013000      10.00000000       0.01551300      -0.00588600      -0.18956900
Pt       5.61200000       4.86013000      10.00000000      -0.00728500      -0.01327500      -0.23247200
Pt       4.20900000       7.29020000      10.00000000      -0.00749600      -0.01464700      -0.16077900
Pt       7.01499000       7.29020000      10.00000000       0.00664900      -0.02886600      -0.17334100
Pt       1.40300000       0.81002000      12.29109000      -0.01899900       0.01053600       0.10056600
Pt       4.20900000       0.81002000      12.29109000       0.01677000      -0.05417500       0.09115400
Pt       2.80600000       3.24009000      12.29109000      -0.02939100      -0.00969800       0.08270800
Pt       5.61200000       3.24009000      12.29109000       0.03816100       0.04393800       0.16104000
Pt       4.20900000       5.67015000      12.29109000       0.03543500      -0.08396000       0.10685300
Pt       7.01499000       5.67015000      12.29109000      -0.02492600      -0.02221400       0.04471100
Pt       5.61200000       8.10022000      12.29109000      -0.01012800       0.04093000       0.11953200
Pt       8.41799000       8.10022000      12.29109000       0.00635800      -0.09664000       0.18278100
Pt       5.61200000       1.62004000      14.58218000       0.01374400       0.03645200      -0.23164600
Pt       2.80600000       1.62004000      14.58218000      -0.01382100       0.06927000      -0.61823900
Pt       7.01499000       4.05011000      14.58218000       0.06544700      -0.01747600      -0.85933600
Pt       4.20900000       4.05011000      14.58218000      -0.02612900       0.22101500      -0.41942300
Pt       5.61200000       6.48017000      14.58218000      -0.05568200       0.12655000      -0.29670900
Pt       9.82099000       8.91024000      14.58218000      -0.03749300       0.26066800      -0.65155800
46
Lattice="5.611995395 0.0 0.0 5.611995395 9.720261156 0.0 0.0 0.0 29.886262579" Properties=species:S:1:pos:R:3:forces:R:3 energy=-291.1071188 pbc="T T T"
C        1.40300000       0.00000000      18.49926000       0.17769800       3.35695100      -1.26851100
C        5.61200000       8.10022000      18.27026000      -0.90071900      -2.29857100      -2.76818000
C        5.61200000       4.86013000      18.72826000      -0.00528300       1.08686500       0.88308500
C        5.61200000       2.43007000      18.49926000       1.87829800       1.16070900      -1.80946800
C        4.20900000       0.81002000      18.27026000      -0.98700700      -1.19508900      -2.62234300
C        8.41799000       8.10022000      18.27026000       0.90671500      -2.47137800      -2.62028600
C        2.80600000       3.24009000      18.27026000      -0.40902600       1.01573800      -3.25712100
O        5.61200000       2.43007000      19.65726000       1.07086700       0.75894800       0.69262400
O        1.40300000       0.00000000      19.65726000       0.03577100       2.68737700       0.46058000
O        8.41799000       8.10022000      19.42826000       1.55842900      -1.85232300       2.67289300
O        4.20900000       0.81002000      19.42826000      -1.59130900      -1.73736300       2.51192200
O        5.61200000       4.86013000      19.88626000       0.00068400       0.73208600      -0.39427800
O        2.80600000       3.24009000      19.42826000       0.00704200       0.09096400       3.05671400
O        5.61200000       8.10022000      19.42826000      -1.54946600      -1.85047300       2.73710000
Pt       7.01499000       8.91024000      14.58218000       0.00070400       0.13445700      -0.84266700
Pt       7.01499000       7.29020000      16.87326000       0.13474700      -0.73997000       0.30046100
Pt       4.20900000       7.29020000      16.87326000      -0.12477700      -0.23263500       0.71055100
Pt       5.61200000       4.86013000      16.87326000       0.05712400       0.68415800       0.44163100
Pt       2.80600000       4.86013000      16.87326000      -0.02744700      -0.09815400       0.33370600
Pt       4.20900000       2.43007000      16.87326000       0.32060800       0.21227300       1.11089600
Pt       1.40300000       2.43007000      16.87326000      -0.57409000       0.09537200       1.18758000
Pt       2.80600000       0.00000000      16.87326000      -0.45702400       0.25717800       1.26048100
Pt       0.00000000       0.00000000      16.87326000       0.45935000      -0.01235100       0.91363300
Pt       0.00000000       0.00000000      10.00000000       0.00778500       0.01733000      -0.21704400
Pt       8.41799000       6.48017000      14.58218000      -0.00415300       0.00660400      -0.15723100
Pt       2.80600000       0.00000000      10.00000000      -0.00569000       0.00278000      -0.21399700
Pt       1.40300000       2.43007000      10.00000000      -0.02901200      -0.00773300      -0.11071800
Pt       4.20900000       2.43007000      10.00000000       0.03244200       0.00293300      -0.12502000
Pt       2.80600000       4.86013000      10.00000000       0.02653500      -0.01131200      -0.20492400
Pt       5.61200000       4.86013000      10.00000000      -0.02042800       0.00313300      -0.25050800
Pt       4.20900000       7.29020000      10.00000000      -0.00061700      -0.00546100      -0.19688700
Pt       7.01499000       7.29020000      10.00000000       0.00197500      -0.00542400      -0.16518700
Pt       1.40300000       0.81002000      12.29109000       0.00838100      -0.10537600       0.11543000
Pt       4.20900000       0.81002000      12.29109000      -0.00355000      -0.05155900       0.07459000
Pt       2.80600000       3.24009000      12.29109000       0.00185700       0.03851100       0.15424400
Pt       5.61200000       3.24009000      12.29109000       0.00183000       0.10077000       0.19522400
Pt       4.20900000       5.67015000      12.29109000       0.00661600       0.01060000       0.05031700
Pt       7.01499000       5.67015000      12.29109000      -0.00500500      -0.05270000       0.03052200
Pt       5.61200000       8.10022000      12.29109000      -0.02672100      -0.03445100       0.11678300
Pt       8.41799000       8.10022000      12.29109000       0.01891700      -0.01169900       0.08846500
Pt       5.61200000       1.62004000      14.58218000       0.02219900      -0.07537900      -0.47548200
Pt       2.80600000       1.62004000      14.58218000      -0.02294700       0.14504600      -0.38389700
Pt       7.01499000       4.05011000      14.58218000      -0.17300500       0.16069100      -0.60953200
Pt       4.20900000       4.05011000      14.58218000       0.16715000      -0.01334200      -0.46101300
Pt       5.61200000       6.48017000      14.58218000      -0.00088800      -0.16594900      -0.24664300
Pt       9.82099000       8.91024000      14.58218000       0.01443700       0.26721900      -0.69849400
46
Lattice="5.611995395 0.0 0.0 5.611995395 9.720261156 0.0 0.0 0.0 29.886262579" Properties=species:S:1:pos:R:3:forces:R:3 energy=-289.15005692 pbc="T T T"
C        7.01499000       4.86013000      18.49926000      -1.86786000       1.36728800      -2.09653400
C        2.80600000       3.24009000      18.27026000      -0.01605300      -2.57684900      -2.77428600
C        1.40300000       0.81002000      18.27026000       0.88949800      -2.29639800      -2.78695500
C        7.01499000       7.29020000      18.72826000      -0.00338300       1.03081800       0.61735900
C        5.61200000       2.43007000      18.49926000      -0.00433000       3.01141100      -1.28975300
C        4.20900000       4.86013000      18.49926000       1.86926600       2.66624500      -2.16862900
C        4.20900000       0.81002000      18.27026000      -0.88119600      -2.46979100      -2.70948400
O        7.01499000       7.29020000      19.88626000       0.00348800       0.71893600      -0.24874300
O        7.01499000       4.86013000      19.65726000      -0.99764000       0.72613900       0.77370600
O        4.20900000       4.86013000      19.65726000       0.99540000       1.46044200       0.94743900
O        5.61200000       2.43007000      19.65726000       0.01174700       2.61775600       0.49448300
O        1.40300000       0.81002000      19.42826000       1.55398700      -1.86062900       2.74387200
O        4.20900000       0.81002000      19.42826000      -1.55987800      -1.85901100       2.71827200
O        2.80600000       3.24009000      19.42826000       0.00779500      -3.41232000       2.56075100
Pt       7.01499000       8.91024000      14.58218000      -0.00304400      -0.12117000      -0.27913300
Pt       7.01499000       7.29020000      16.87326000      -0.04501200       0.73127800       0.56434100
Pt       4.20900000       7.29020000      16.87326000       0.03048700       0.28531600      -0.43734600
Pt       5.61200000       4.86013000      16.87326000      -0.11499700       0.17707600       2.20671200
Pt       2.80600000       4.86013000      16.87326000       0.12678600       0.65558800       1.73445800
Pt       4.20900000       2.43007000      16.87326000       0.39509100      -0.19145400       1.03189600
Pt       1.40300000       2.43007000      16.87326000      -0.39059900      -0.09412500       0.98996100
Pt       2.80600000       0.00000000      16.87326000       0.15533700      -0.25958500       0.78469200
Pt       0.00000000       0.00000000      16.87326000      -0.14666100      -0.80734500       0.36664600
Pt       0.00000000       0.00000000      10.00000000       0.00820900      -0.00337800      -0.20264900
Pt       8.41799000       6.48017000      14.58218000      -0.15008600      -0.08143100      -0.27520900
Pt       2.80600000       0.00000000      10.00000000      -0.00936200      -0.01265500      -0.23619500
Pt       1.40300000       2.43007000      10.00000000      -0.00745500      -0.01542200      -0.18983900
Pt       4.20900000       2.43007000      10.00000000       0.00519200      -0.04405200      -0.18978900
Pt       2.80600000       4.86013000      10.00000000      -0.03618400       0.01128200      -0.11159300
Pt       5.61200000       4.86013000      10.00000000       0.03338700       0.00554800      -0.11000500
Pt       4.20900000       7.29020000      10.00000000      -0.02108000       0.01120800      -0.18501400
Pt       7.01499000       7.29020000      10.00000000       0.01505000       0.01017000      -0.27415100
Pt       1.40300000       0.81002000      12.29109000       0.02541100      -0.03562900       0.10435100
Pt       4.20900000       0.81002000      12.29109000      -0.02439100      -0.12222900       0.19537700
Pt       2.80600000       3.24009000      12.29109000      -0.01701300      -0.01346400       0.09931500
Pt       5.61200000       3.24009000      12.29109000       0.01575800      -0.06110400       0.14228800
Pt       4.20900000       5.67015000      12.29109000       0.00514200       0.04608500       0.10928100
Pt       7.01499000       5.67015000      12.29109000      -0.00882400       0.12759800       0.25803400
Pt       5.61200000       8.10022000      12.29109000       0.02448500      -0.06908000       0.01578500
Pt       8.41799000       8.10022000      12.29109000      -0.01854000      -0.02938600       0.04173200
Pt       5.61200000       1.62004000      14.58218000      -0.01062200       0.14689900      -0.77035300
Pt       2.80600000       1.62004000      14.58218000       0.00460700       0.29138000      -0.66338000
Pt       7.01499000       4.05011000      14.58218000      -0.02105500       0.02162400      -0.38290400
Pt       4.20900000       4.05011000      14.58218000       0.02732600       0.12520200      -0.49565400
Pt       5.61200000       6.48017000      14.58218000       0.14973200       0.06878900      -0.41262500
Pt       9.82099000       8.91024000      14.58218000       0.00208700       0.12242700      -0.21052500
46