28
Lattice="5.611995395 0.0 0.0 4.208996546 7.290195867 0.0 0.0 0.0 29.657262579" Properties=species:S:1:pos:R:3:forces:R:3 energy=-171.54336078 pbc="T T T"
C        4.20900000       4.86013000      18.49926000      -0.02423200      -0.01712300      -2.86842800
C        1.40300000       0.81002000      18.27026000       0.05687600       0.10050400      -3.37978600
O        1.40300000       0.81002000      19.42826000      -0.00890000      -0.01581900       3.07513900
O        4.20900000       4.86013000      19.65726000       0.00935200      -0.01460300       1.40246000
Pt       5.61200000       4.86013000      16.87326000      -0.27585800      -0.43699600       1.13444200
Pt       2.80600000       4.86013000      16.87326000       0.26857700      -0.07164100       1.15773400
Pt       4.20900000       2.43007000      16.87326000      -0.00486400      -0.15598700      -0.20631600
Pt       1.40300000       2.43007000      16.87326000       0.00419400       0.14349200       0.61536500
Pt       2.80600000       0.00000000      16.87326000       0.23458900       0.03893600       0.51020300
Pt       0.00000000       0.00000000      16.87326000      -0.25592400       0.33062600       0.48943400
Pt       5.61200000       6.48017000      14.58218000       0.04211900      -0.06730200      -0.54832000
Pt       8.41799000       6.48017000      14.58218000      -0.03974900       0.13433500      -0.17950600
Pt       4.20900000       4.05011000      14.58218000       0.00217900      -0.12558100      -0.60559400
Pt       7.01499000       4.05011000      14.58218000      -0.01672000       0.09678100       0.12011500
Pt       0.00000000       0.00000000      10.00000000      -0.00090100      -0.01504800      -0.03560700
Pt       7.01499000       5.67015000      12.29109000      -0.04950000      -0.00433200       0.05411100
Pt       4.20900000       5.67015000      12.29109000       0.05616800      -0.03767200       0.11469700
Pt       5.61200000       3.24009000      12.29109000      -0.04548900      -0.00266900       0.11062600
Pt       2.80600000       3.24009000      12.29109000       0.04387900      -0.02320900       0.07324800
Pt       4.20900000       0.81002000      12.29109000      -0.03169000       0.01229000       0.10944500
Pt       1.40300000       0.81002000      12.29109000       0.03099400       0.00969500       0.18234600
Pt       5.61200000       4.86013000      10.00000000      -0.01474600      -0.04918600      -0.09431500
Pt       2.80600000       4.86013000      10.00000000       0.02291800      -0.00400400      -0.05308600
Pt       4.20900000       2.43007000      10.00000000       0.02127700      -0.01646900      -0.18018100
Pt       1.40300000       2.43007000      10.00000000      -0.01514200       0.03012200      -0.04935300
Pt       2.80600000       0.00000000      10.00000000      -0.00942400       0.04967500      -0.10039600
Pt       5.61200000       1.62004000      14.58218000      -0.08400100       0.03735400      -0.42359800
Pt       2.80600000       1.62004000      14.58218000       0.08401700       0.07383100      -0.42488000
28
Lattice="5.611995395 0.0 0.0 4.208996546 7.290195867 0.0 0.0 0.0 29.428262579" Properties=species:S:1:pos:R:3:forces:R:3 energy=-171.45820596 pbc="T T T"
C        2.80600000       3.24009000      18.27026000       0.24027800      -0.56850400      -3.06118700
C        7.01499000       5.67015000      18.27026000      -0.36698100       0.48077600      -3.10217100
O        7.01499000       5.67015000      19.42826000      -0.08444700       0.11137900       2.89043100
O        2.80600000       3.24009000      19.42826000       0.04587300      -0.11564800       2.88480100
Pt       5.61200000       4.86013000      16.87326000      -0.18594500       0.23087400       0.48030800
Pt       2.80600000       4.86013000      16.87326000       0.36572400       0.23882700       0.76496700
Pt       4.20900000       2.43007000      16.87326000       0.24772800      -0.16432700       0.48116500
Pt       1.40300000       2.43007000      16.87326000      -0.22878600      -0.51042800       0.48708700
Pt       2.80600000       0.00000000      16.87326000      -0.00405800      -0.05247500       0.53960100
Pt       0.00000000       0.00000000      16.87326000       0.01176900       0.40640800      -0.24119100
Pt       5.61200000       6.48017000      14.58218000      -0.06129900       0.04571700      -0.41789300
Pt       8.41799000       6.48017000      14.58218000       0.05922900      -0.05082600      -0.29229400
Pt       4.20900000       4.05011000      14.58218000       0.04545600       0.17873500      -0.28304100
Pt       7.01499000       4.05011000      14.58218000      -0.06739300      -0.07377000      -0.73799600
Pt       0.00000000       0.00000000      10.00000000       0.00939500       0.02327300      -0.06428000
Pt       7.01499000       5.67015000      12.29109000       0.02604600       0.02495400       0.26177700
Pt       4.20900000       5.67015000      12.29109000      -0.02723100      -0.06096800       0.14273000
Pt       5.61200000       3.24009000      12.29109000       0.03142600      -0.10005300       0.07443800
Pt       2.80600000       3.24009000      12.29109000      -0.04513400       0.02906600       0.07347500
Pt       4.20900000       0.81002000      12.29109000      -0.06444700       0.06586300       0.04177100
Pt       1.40300000       0.81002000      12.29109000       0.07469600       0.02565100       0.08825000
Pt       5.61200000       4.86013000      10.00000000       0.03294700       0.02499000      -0.07866100
Pt       2.80600000       4.86013000      10.00000000      -0.03510200       0.01916500      -0.11751200
Pt       4.20900000       2.43007000      10.00000000      -0.01813000       0.03980700      -0.08806000
Pt       1.40300000       2.43007000      10.00000000       0.00237400      -0.04547400      -0.12681800
Pt       2.80600000       0.00000000      10.00000000      -0.00906400      -0.04809500      -0.13584100
Pt       5.61200000       1.62004000      14.58218000      -0.00600300       0.07573200      -0.04801900
Pt       2.80600000       1.62004000      14.58218000       0.01107700      -0.23064800      -0.41583500
28
Lattice="5.611995395 0.0 0.0 4.208996546 7.290195867 0.0 0.0 0.0 29.657262579" Properties=species:S:1:pos:R:3:forces:R:3 energy=-169.86848585 pbc="T T T"
C        4.20900000       4.05011000      18.27026000      -1.34224900       1.91639800      -3.26700400
C        5.61200000       2.43007000      18.49926000       2.11614700      -2.05351200      -2.44710300
O        5.61200000       2.43007000      19.65726000       1.15834700      -1.42718800       1.11188200
O        4.20900000       4.05011000      19.42826000      -1.65064700       1.86411700       2.90676900
Pt       5.61200000       4.86013000      16.87326000       0.07647800       0.60594900       0.52451900
Pt       2.80600000       4.86013000      16.87326000       0.01430000       0.26729100       0.61107400
Pt       4.20900000       2.43007000      16.87326000       0.07945900      -0.59296300       1.40526500
Pt       1.40300000       2.43007000      16.87326000      -0.51975100      -0.33811200       1.26863700
Pt       2.80600000       0.00000000      16.87326000      -0.05531100      -0.16129100      -0.08122900
Pt       0.00000000       0.00000000      16.87326000       0.04373600      -0.25857900      -0.14335100
Pt       5.61200000       6.48017000      14.58218000      -0.01233400       0.02396600      -0.25394500
Pt       8.41799000       6.48017000      14.58218000       0.00504900      -0.02710500      -0.26427900
Pt       4.20900000       4.05011000      14.58218000       0.00683700       0.00615300      -0.76191800
Pt       7.01499000       4.05011000      14.58218000       0.00454000       0.09907600      -0.28922500
Pt       0.00000000       0.00000000      10.00000000      -0.01061400      -0.01940600      -0.16887700
Pt       7.01499000       5.67015000      12.29109000       0.01432600       0.03937800       0.16922300
Pt       4.20900000       5.67015000      12.29109000      -0.01500900       0.13126600       0.15320000
Pt       5.61200000       3.24009000      12.29109000      -0.03829600      -0.05327400       0.16654000
Pt       2.80600000       3.24009000      12.29109000       0.02902300      -0.08141700       0.17406500
Pt       4.20900000       0.81002000      12.29109000       0.07796800       0.01149400       0.03028500
Pt       1.40300000       0.81002000      12.29109000      -0.01453600      -0.05540700       0.01334800
Pt       5.61200000       4.86013000      10.00000000      -0.02076100      -0.01840500      -0.04980700
Pt       2.80600000       4.86013000      10.00000000       0.02638200       0.00679700      -0.09682300
Pt       4.20900000       2.43007000      10.00000000       0.01683500       0.00412600      -0.10269500
Pt       1.40300000       2.43007000      10.00000000      -0.02009300       0.01472200      -0.02705500
Pt       2.80600000       0.00000000      10.00000000       0.02164000       0.02450500      -0.04957900
Pt       5.61200000       1.62004000      14.58218000      -0.04971700      -0.12809200      -0.66132400
Pt       2.80600000       1.62004000      14.58218000       0.05825400       0.19951100       0.12940700
28
Lattice="5.611995395 0.0 0.0 4.208996546 7.290195867 0.0 0.0 0.0 29.657262579" Properties=species:S:1:pos:R:3:forces:R:3 energy=-171.06473908 pbc="T T T"
C        1.40300000       0.00000000      18.49926000      -0.00404800       0.42224300      -2.60359000
C        8.41799000       6.48017000      18.27026000      -0.00344600      -0.33900100      -3.10143100
O        8.41799000       6.48017000      19.42826000       0.00078300      -0.10631900       2.89447100
O        1.40300000       0.00000000      19.65726000       0.00148200      -0.04846200       1.16262800
Pt       5.61200000       4.86013000      16.87326000       0.00693500      -0.91115200      -0.18485100
Pt       2.80600000       4.86013000      16.87326000       0.00028700      -0.34833600       0.69026400
Pt       4.20900000       2.43007000      16.87326000       0.01880400       0.59914300      -0.20374800
Pt       1.40300000       2.43007000      16.87326000      -0.02205000       0.59808800      -0.07793900
Pt       2.80600000       0.00000000      16.87326000      -0.43055700       0.06909800       1.62046100
Pt       0.00000000       0.00000000      16.87326000       0.43416400       0.05139400       1.62119800
Pt       5.61200000       6.48017000      14.58218000       0.00712900      -0.02470300      -0.64260800
Pt       8.41799000       6.48017000      14.58218000      -0.00895600       0.22438500      -0.36225300
Pt       4.20900000       4.05011000      14.58218000      -0.00429500      -0.04591200      -0.30491600
Pt       7.01499000       4.05011000      14.58218000       0.00194600      -0.07092000      -0.25588100
Pt       0.00000000       0.00000000      10.00000000       0.01773800       0.00583400      -0.04536300
Pt       7.01499000       5.67015000      12.29109000      -0.04326800      -0.09773700       0.08091600
Pt       4.20900000       5.67015000      12.29109000       0.04614100      -0.09155700       0.06229400
Pt       5.61200000       3.24009000      12.29109000      -0.00557800       0.07815300      -0.02514800
Pt       2.80600000       3.24009000      12.29109000       0.00509200       0.10605700       0.13983700
Pt       4.20900000       0.81002000      12.29109000      -0.00385200      -0.05230900       0.19597900
Pt       1.40300000       0.81002000      12.29109000       0.00337400      -0.06133700       0.27474500
Pt       5.61200000       4.86013000      10.00000000       0.00982300       0.02556100      -0.16642400
Pt       2.80600000       4.86013000      10.00000000      -0.00903100       0.04258700      -0.09126500
Pt       4.20900000       2.43007000      10.00000000      -0.01960900       0.00031300      -0.06918300
Pt       1.40300000       2.43007000      10.00000000       0.01963400      -0.01179800      -0.04797700
Pt       2.80600000       0.00000000      10.00000000      -0.01653700      -0.00575900      -0.05074200
Pt       5.61200000       1.62004000      14.58218000      -0.00885300      -0.00128000      -0.25629200
Pt       2.80600000       1.62004000      14.58218000       0.00674900      -0.00627500      -0.25318100
28
Lattice="5.611995395 0.0 0.0 4.208996546 7.290195867 0.0 0.0 0.0 29.886262579" Properties=species:S:1:pos:R:3:forces:R:3 energy=-171.44249803 pbc="T T T"
C        2.80600000       2.43007000      18.49926000       0.01071500       0.13870800      -3.27752700
C        0.00000000       0.00000000      18.72826000      -0.00629500      -0.11813600       0.16186700
O        0.00000000       0.00000000      19.88626000       0.00219000       0.03724000      -0.08152300
O        2.80600000       2.43007000      19.65726000      -0.00532600      -0.03784800       1.71719900
Pt       5.61200000       4.86013000      16.87326000       0.20944900      -0.15242400      -0.14951300
Pt       2.80600000       4.86013000      16.87326000      -0.21164800       0.12170000      -0.11815800
Pt       4.20900000       2.43007000      16.87326000      -0.49062800       0.28451700       1.15730200
Pt       1.40300000       2.43007000      16.87326000       0.48553900       0.28820300       1.17270900
Pt       2.80600000       0.00000000      16.87326000       0.00217700      -0.53044500      -0.23391300
Pt       0.00000000       0.00000000      16.87326000      -0.00133600      -0.10963000       0.92298100
Pt       5.61200000       6.48017000      14.58218000      -0.09589400       0.04295000      -0.21207500
Pt       8.41799000       6.48017000      14.58218000       0.09243000       0.02090900      -0.21246000
Pt       4.20900000       4.05011000      14.58218000       0.03533500      -0.01041300      -0.25437900
Pt       7.01499000       4.05011000      14.58218000      -0.02995400       0.02729100      -0.31799100
Pt       0.00000000       0.00000000      10.00000000      -0.01584800       0.01297400      -0.07213000
Pt       7.01499000       5.67015000      12.29109000      -0.02677100      -0.01334900      -0.04302400
Pt       4.20900000       5.67015000      12.29109000       0.02490400       0.03386200       0.16343000
Pt       5.61200000       3.24009000      12.29109000       0.00885300       0.06194500       0.14857300
Pt       2.80600000       3.24009000      12.29109000      -0.00420200       0.02687100       0.23486700
Pt       4.20900000       0.81002000      12.29109000      -0.05227800      -0.06977000       0.13679700
Pt       1.40300000       0.81002000      12.29109000       0.04906700      -0.06081600       0.13868200
Pt       5.61200000       4.86013000      10.00000000      -0.03431200       0.04935100      -0.18264900
Pt       2.80600000       4.86013000      10.00000000       0.02482100      -0.02854400      -0.09245000
Pt       4.20900000       2.43007000      10.00000000      -0.01930100      -0.01528100      -0.04007300
Pt       1.40300000       2.43007000      10.00000000       0.02220600       0.02026600      -0.07061900
Pt       2.80600000       0.00000000      10.00000000       0.02261400      -0.02557100      -0.16652100
Pt       5.61200000       1.62004000      14.58218000      -0.01261100       0.07601200       0.12807200
Pt       2.80600000       1.62004000      14.58218000       0.01610500      -0.07057100      -0.55747400
28
Lattice="5.611995395 0.0 0.0 4.208996546 7.290195867 0.0 0.0 0.0 29.657262579" Properties=species:S:1:pos:R:3:forces:R:3 energy=-171.17454227 pbc="T T T"
C        4.20900000       0.00000000      18.49926000       0.28320600       0.54958100      -2.93976600
C        7.01499000       4.86013000      18.49926000      -0.25647600      -0.40849300      -2.92495800
O        7.01499000       4.86013000      19.65726000      -0.05304500      -0.10609400       1.41834200
O        4.20900000       0.00000000      19.65726000       0.04225800       0.06538400       1.42446900
Pt       5.61200000       4.86013000      16.87326000       0.34563000      -0.24426900       1.24576300
Pt       2.80600000       4.86013000      16.87326000      -0.28711700      -0.64889800       1.13867600
Pt       4.20900000       2.43007000      16.87326000       0.01100900       0.35819000      -0.10041300
Pt       1.40300000       2.43007000      16.87326000      -0.00775100      -0.31394500      -0.08356300
Pt       2.80600000       0.00000000      16.87326000       0.27435600       0.43191900       1.13491100
Pt       0.00000000       0.00000000      16.87326000      -0.34393000       0.10606900       1.24151400
Pt       5.61200000       6.48017000      14.58218000      -0.03717800       0.27820300       0.01805500
Pt       8.41799000       6.48017000      14.58218000       0.03092900      -0.07342900      -0.66382800
Pt       4.20900000       4.05011000      14.58218000      -0.03255800       0.16571300       0.11008500
Pt       7.01499000       4.05011000      14.58218000       0.02483600      -0.14070500      -0.62371000
Pt       0.00000000       0.00000000      10.00000000      -0.01470700       0.00210500      -0.06072700
Pt       7.01499000       5.67015000      12.29109000       0.06450100      -0.04393200       0.13413000
Pt       4.20900000       5.67015000      12.29109000      -0.05055600      -0.12331300       0.16328300
Pt       5.61200000       3.24009000      12.29109000       0.06086100      -0.00804900       0.01991400
Pt       2.80600000       3.24009000      12.29109000      -0.07828100       0.01997700       0.05252500
Pt       4.20900000       0.81002000      12.29109000       0.00821700       0.05178700       0.16692700
Pt       1.40300000       0.81002000      12.29109000      -0.00725900       0.03700600       0.18428600
Pt       5.61200000       4.86013000      10.00000000       0.01721000       0.01891100      -0.05642500
Pt       2.80600000       4.86013000      10.00000000      -0.00899000      -0.01188100      -0.15451200
Pt       4.20900000       2.43007000      10.00000000      -0.01762800       0.02575700      -0.03975300
Pt       1.40300000       2.43007000      10.00000000       0.01792600      -0.01743900      -0.17611700
Pt       2.80600000       0.00000000      10.00000000       0.00390900      -0.01636600      -0.04465100
Pt       5.61200000       1.62004000      14.58218000       0.04573800       0.02637200      -0.27430800
Pt       2.80600000       1.62004000      14.58218000      -0.03510700       0.01983900      -0.31014900
28
Lattice="5.611995395 0.0 0.0 4.208996546 7.290195867 0.0 0.0 0.0 29.657262579" Properties=species:S:1:pos:R:3:forces:R:3 energy=-171.5151043 pbc="T T T"
C        5.61200000       1.62004000      18.27026000      -0.03542900      -0.12047600      -3.34617600
C        7.01499000       4.86013000      18.49926000       0.03982300       0.14447500      -2.88591600
O        7.01499000       4.86013000      19.65726000      -0.01182000      -0.02120900       1.40192100
O        5.61200000       1.62004000      19.42826000       0.00036800       0.02033000       3.04565500
Pt       5.61200000       4.86013000      16.87326000       0.29738200       0.18299800       1.13580700
Pt       2.80600000       4.86013000      16.87326000      -0.29095400      -0.07727100       1.19350700
Pt       4.20900000       2.43007000      16.87326000      -0.11818200      -0.02364100       0.49520100
Pt       1.40300000       2.43007000      16.87326000       0.13098500      -0.38839800       0.48059600
Pt       2.80600000       0.00000000      16.87326000       0.01854600       0.17386900      -0.23446300
Pt       0.00000000       0.00000000      16.87326000      -0.00576300       0.01015000       0.57754500
Pt       5.61200000       6.48017000      14.58218000      -0.06027500       0.02363900      -0.34404400
Pt       8.41799000       6.48017000      14.58218000       0.05660300       0.02374300      -0.28492200
Pt       4.20900000       4.05011000      14.58218000      -0.01076800       0.21116000       0.07417200
Pt       7.01499000       4.05011000      14.58218000       0.01972400      -0.09837700      -0.61131100
Pt       0.00000000       0.00000000      10.00000000       0.01494800      -0.00151700      -0.11411000
Pt       7.01499000       5.67015000      12.29109000       0.00897300      -0.00456000       0.01841200
Pt       4.20900000       5.67015000      12.29109000      -0.00828400       0.03996800       0.22587800
Pt       5.61200000       3.24009000      12.29109000       0.05394700      -0.01893400       0.09209700
Pt       2.80600000       3.24009000      12.29109000      -0.05977500      -0.08131700       0.16897300
Pt       4.20900000       0.81002000      12.29109000       0.02435800       0.00159900       0.06917200
Pt       1.40300000       0.81002000      12.29109000      -0.03341300       0.02657700       0.10470900
Pt       5.61200000       4.86013000      10.00000000      -0.02034300      -0.02227500      -0.06128700
Pt       2.80600000       4.86013000      10.00000000       0.01879700      -0.01784300      -0.05629600
Pt       4.20900000       2.43007000      10.00000000       0.00857200       0.02023000      -0.06549700
Pt       1.40300000       2.43007000      10.00000000      -0.00175400      -0.01531700      -0.17468700
Pt       2.80600000       0.00000000      10.00000000      -0.02023900       0.03328800      -0.05007200
Pt       5.61200000       1.62004000      14.58218000       0.02022100      -0.03663800      -0.63680400
Pt       2.80600000       1.62004000      14.58218000      -0.03624700       0.01574600      -0.21806200
28
Lattice="5.611995395 0.0 0.0 4.208996546 7.290195867 0.0 0.0 0.0 29.428262579" Properties=species:S:1:pos:R:3:forces:R:3 energy=-171.69902619 pbc="T T T"
C        7.01499000       4.05011000      18.27026000       0.00654700      -0.01562700      -3.23373900
C        4.20900000       0.81002000      18.27026000       0.00657700      -0.00818100      -3.28536700
O        4.20900000       0.81002000      19.42826000      -0.00963700       0.01643500       3.00828300
O        7.01499000       4.05011000      19.42826000       0.00604500      -0.01063700       2.98103300
Pt       5.61200000       4.86013000      16.87326000      -0.17104000       0.15908600       0.42781000
Pt       2.80600000       4.86013000      16.87326000       0.14452700      -0.19669800       0.43647800
Pt       4.20900000       2.43007000      16.87326000       0.01588500       0.01632100       0.46169900
Pt       1.40300000       2.43007000      16.87326000      -0.01283200       0.13823700       0.44310000
Pt       2.80600000       0.00000000      16.87326000      -0.23416100       0.07129100       0.45820300
Pt       0.00000000       0.00000000      16.87326000       0.26292000      -0.16441400       0.46375600
Pt       5.61200000       6.48017000      14.58218000      -0.01806300       0.09289500      -0.10878300
Pt       8.41799000       6.48017000      14.58218000       0.02377100      -0.10164600      -0.48374600
Pt       4.20900000       4.05011000      14.58218000      -0.01890500      -0.07070100      -0.14350200
Pt       7.01499000       4.05011000      14.58218000       0.00683000      -0.03414700      -0.60775700
Pt       0.00000000       0.00000000      10.00000000       0.02352800       0.03039400      -0.11383100
Pt       7.01499000       5.67015000      12.29109000       0.05839500      -0.00567400       0.08772200
Pt       4.20900000       5.67015000      12.29109000      -0.05813200       0.03610700       0.07717400
Pt       5.61200000       3.24009000      12.29109000       0.01194800      -0.02158200       0.13598200
Pt       2.80600000       3.24009000      12.29109000      -0.00861600      -0.00265500       0.16667900
Pt       4.20900000       0.81002000      12.29109000       0.03309700      -0.03344000       0.05669800
Pt       1.40300000       0.81002000      12.29109000      -0.03467400       0.02643800       0.17788100
Pt       5.61200000       4.86013000      10.00000000       0.01245200       0.00108700      -0.08003600
Pt       2.80600000       4.86013000      10.00000000      -0.00464500      -0.04507000      -0.12661100
Pt       4.20900000       2.43007000      10.00000000      -0.01343000       0.03840000      -0.07461900
Pt       1.40300000       2.43007000      10.00000000       0.01316700       0.00151000      -0.14003500
Pt       2.80600000       0.00000000      10.00000000      -0.03019900      -0.02319700      -0.07936200
Pt       5.61200000       1.62004000      14.58218000       0.10597200       0.05598800      -0.43616700
Pt       2.80600000       1.62004000      14.58218000      -0.11732700       0.04947800      -0.46894300
28
Lattice="5.611995395 0.0 0.0 4.208996546 7.290195867 0.0 0.0 0.0 29.886262579" Properties=species:S:1:pos:R:3:forces:R:3 energy=-171.60548642 pbc="T T T"
C        2.80600000       3.24009000      18.27026000       0.02115300       0.13271600      -3.61766200
C        2.80600000       0.00000000      18.72826000      -0.01597900      -0.13760200       0.34285200
O        2.80600000       0.00000000      19.88626000       0.00535200       0.00217000      -0.17377200
O        2.80600000       3.24009000      19.42826000      -0.01068900       0.00967900       3.28869600
Pt       5.61200000       4.86013000      16.87326000      -0.20847300      -0.00556000      -0.24132400
Pt       2.80600000       4.86013000      16.87326000       0.19350500      -0.06010300       0.55057500
Pt       4.20900000       2.43007000      16.87326000       0.45382100       0.19818500       0.47550900
Pt       1.40300000       2.43007000      16.87326000      -0.45203900       0.19238200       0.46791400
Pt       2.80600000       0.00000000      16.87326000       0.02703500      -0.33522000       0.82096800
Pt       0.00000000       0.00000000      16.87326000      -0.01511100       0.00329200      -0.30477100
Pt       5.61200000       6.48017000      14.58218000       0.12899700       0.05581200      -0.19255200
Pt       8.41799000       6.48017000      14.58218000      -0.13271800      -0.04039300      -0.13747500
Pt       4.20900000       4.05011000      14.58218000       0.06459900       0.08272100      -0.46238800
Pt       7.01499000       4.05011000      14.58218000      -0.06701800      -0.00318200      -0.42285400
Pt       0.00000000       0.00000000      10.00000000       0.01699700      -0.00991800      -0.03228600
Pt       7.01499000       5.67015000      12.29109000       0.02695900       0.04786900       0.23617000
Pt       4.20900000       5.67015000      12.29109000      -0.03350300      -0.06745900      -0.00227700
Pt       5.61200000       3.24009000      12.29109000      -0.01663700      -0.02665300       0.14512900
Pt       2.80600000       3.24009000      12.29109000       0.02092800       0.09442200       0.16520100
Pt       4.20900000       0.81002000      12.29109000      -0.05181500       0.02126800       0.05302200
Pt       1.40300000       0.81002000      12.29109000       0.07285700      -0.05521100       0.09799600
Pt       5.61200000       4.86013000      10.00000000       0.06919600      -0.00633000      -0.13321600
Pt       2.80600000       4.86013000      10.00000000      -0.06796200       0.04464000      -0.17382800
Pt       4.20900000       2.43007000      10.00000000      -0.03046000       0.06571500      -0.11139600
Pt       1.40300000       2.43007000      10.00000000       0.01303300      -0.02180000      -0.03323600
Pt       2.80600000       0.00000000      10.00000000      -0.01121000      -0.06611000      -0.13908300
Pt       5.61200000       1.62004000      14.58218000      -0.01499600       0.14252000       0.00047900
Pt       2.80600000       1.62004000      14.58218000       0.01417500      -0.25784800      -0.46639100
28
Lattice="5.611995395 0.0 0.0 4.208996546 7.290195867 0.0 0.0 0.0 29.886262579" Properties=species:S:1:pos:R:3:forces:R:3 energy=-171.56754971 pbc="T T T"
C        0.00000000       0.00000000      18.72826000       0.00297100       0.17312600       0.40105200
C        7.01499000       5.67015000      18.27026000       0.00493600      -0.16605100      -3.74693900
O        7.01499000       5.67015000      19.42826000      -0.00195700       0.01125500       3.35428000
O        0.00000000       0.00000000      19.88626000      -0.00065200      -0.01379900      -0.21958300
Pt       5.61200000       4.86013000      16.87326000      -0.05183500      -0.51506500       0.53874700
Pt       2.80600000       4.86013000      16.87326000       0.05626000      -0.53950900       0.50535300
Pt       4.20900000       2.43007000      16.87326000      -0.20391400       0.40757300      -0.18445100
Pt       1.40300000       2.43007000      16.87326000       0.19673200       0.00593500      -0.19118700
Pt       2.80600000       0.00000000      16.87326000      -0.01022800       0.34516800       0.39126800
Pt       0.00000000       0.00000000      16.87326000       0.00893500       0.34005700       0.76102800
Pt       5.61200000       6.48017000      14.58218000      -0.19321800       0.13273500      -0.45049200
Pt       8.41799000       6.48017000      14.58218000       0.18829000       0.13214700      -0.44910000
Pt       4.20900000       4.05011000      14.58218000      -0.00158100       0.02897500      -0.05969400
Pt       7.01499000       4.05011000      14.58218000       0.00511100      -0.13968700      -0.52518300
Pt       0.00000000       0.00000000      10.00000000      -0.00572000      -0.01130500      -0.11621200
Pt       7.01499000       5.67015000      12.29109000      -0.00317600      -0.09565500       0.05828800
Pt       4.20900000       5.67015000      12.29109000      -0.00391700      -0.07140900       0.20822100
Pt       5.61200000       3.24009000      12.29109000       0.05911600       0.06567800      -0.00506800