46
Lattice="8.417993093 0.0 0.0 4.208996546 7.290195867 0.0 0.0 0.0 29.886262579" Properties=species:S:1:pos:R:3:forces:R:3 energy=-285.63844711 pbc="T T T"
C        1.40300000       2.43007000      18.72826000      -0.00000000      -1.02738300       0.71505300
C        7.01499000       0.81002000      18.27026000       1.78503800      -1.80647600      -3.28229700
C        4.20900000       0.81002000      18.27026000      -1.78503800      -1.80647600      -3.28229700
C        5.61200000       2.43007000      18.49926000       0.00000000       4.34862900      -1.86775700
C        9.82099000       4.86013000      18.49926000       0.00000000       1.11345700      -3.04437500
O        7.01499000       0.81002000      19.42826000       1.69491600      -1.84909300       3.01873300
O        1.40300000       2.43007000      19.88626000      -0.00000000      -0.70687200      -0.38133000
O        5.61200000       2.43007000      19.65726000      -0.00000000       2.70624300       0.78545800
O        4.20900000       0.81002000      19.42826000      -1.69491600      -1.84909300       3.01873300
O        9.82099000       4.86013000      19.65726000      -0.00000000       0.78975100       1.41496500
Pt       8.41799000       4.86013000      16.87326000       0.21453200      -0.01919600       1.08851200
Pt       5.61200000       4.86013000      16.87326000      -0.00000000       0.65139300      -0.32951800
Pt       7.01499000       4.05011000      14.58218000       0.16676700      -0.02213300       0.06727200
Pt       7.01499000       2.43007000      16.87326000      -0.51976700       0.49733800       1.16420000
Pt       4.20900000       2.43007000      16.87326000       0.51976700       0.49733800       1.16420000
Pt       1.40300000       2.43007000      16.87326000      -0.00000000      -0.28045700       0.55882900
Pt       5.61200000       0.00000000      16.87326000       0.00000000      -0.50953000       0.34265400
Pt       2.80600000       0.00000000      16.87326000      -0.09529700      -0.43013400       0.54308300
Pt       0.00000000       0.00000000      16.87326000       0.09529700      -0.43013400       0.54308300
Pt       8.41799000       6.48017000      14.58218000       0.07262800      -0.02915400      -0.43126300
Pt       5.61200000       6.48017000      14.58218000      -0.00000000       0.07179200      -0.03705400
Pt      11.22399000       6.48017000      14.58218000      -0.07262800      -0.02915400      -0.43126300
Pt       2.80600000       4.86013000      16.87326000      -0.21453200      -0.01919600       1.08851200
Pt       0.00000000       0.00000000      10.00000000      -0.03175900       0.03681800      -0.14591500
Pt       5.61200000       1.62004000      14.58218000      -0.00000000      -0.03840100      -1.15273300
Pt       2.80600000       0.00000000      10.00000000       0.03175900       0.03681800      -0.14591500
Pt       5.61200000       0.00000000      10.00000000      -0.00000000       0.01913200      -0.24863400
Pt       1.40300000       2.43007000      10.00000000      -0.00000000       0.01325300      -0.12677300
Pt       4.20900000       2.43007000      10.00000000      -0.01277900      -0.03571800      -0.12979100
Pt       7.01499000       2.43007000      10.00000000       0.01277900      -0.03571800      -0.12979100
Pt       2.80600000       4.86013000      10.00000000      -0.07297900      -0.01087700      -0.10910600
Pt       5.61200000       4.86013000      10.00000000      -0.00000000      -0.02742700      -0.06888600
Pt       8.41799000       4.86013000      10.00000000       0.07297900      -0.01087700      -0.10910600
Pt       1.40300000       0.81002000      12.29109000      -0.00000000      -0.14000500       0.16039000
Pt       4.20900000       0.81002000      12.29109000       0.09069800      -0.03434000       0.02633600
Pt       7.01499000       0.81002000      12.29109000      -0.09069800      -0.03434000       0.02633600
Pt       2.80600000       3.24009000      12.29109000       0.03816300      -0.00005700       0.21238200
Pt       5.61200000       3.24009000      12.29109000      -0.00000000      -0.03402500       0.04073200
Pt       8.41799000       3.24009000      12.29109000      -0.03816300      -0.00005700       0.21238200
Pt       4.20900000       5.67015000      12.29109000       0.06989200      -0.00213300       0.00021100
Pt       7.01499000       5.67015000      12.29109000      -0.06989200      -0.00213300       0.00021100
Pt       9.82099000       5.67015000      12.29109000      -0.00000000       0.12888500       0.13418000
Pt       8.41799000       1.62004000      14.58218000       0.10421000       0.28763900      -0.21105600
Pt       2.80600000       1.62004000      14.58218000      -0.10421000       0.28763900      -0.21105600
Pt       9.82099000       4.05011000      14.58218000       0.00000000      -0.24340700      -0.51780400
Pt       4.20900000       4.05011000      14.58218000      -0.16676700      -0.02213300       0.06727200
46
Lattice="8.417993093 0.0 0.0 4.208996546 7.290195867 0.0 0.0 0.0 29.657262579" Properties=species:S:1:pos:R:3:forces:R:3 energy=-286.81398657 pbc="T T T"
C        7.01499000       0.81002000      18.27026000       1.37419800      -0.98033000      -2.90147100
C        5.61200000       2.43007000      18.49926000      -2.41176100       1.63452700      -2.25026200
C        7.01499000       4.86013000      18.49926000       0.27533000       0.30896000      -2.42460500
C        4.20900000       5.67015000      18.27026000       0.24102800      -0.26924200      -2.77563600
C        9.82099000       5.67015000      18.27026000      -0.29405700      -0.36791000      -2.81161600
O        5.61200000       2.43007000      19.65726000      -1.20201800       1.34521600       0.98004200
O        7.01499000       0.81002000      19.42826000       1.62483700      -1.65171800       2.64881400
O        4.20900000       5.67015000      19.42826000       0.11293400      -0.07581000       2.67680800
O        7.01499000       4.86013000      19.65726000       0.04941300       0.07857900       1.04666500
O        9.82099000       5.67015000      19.42826000      -0.10236400      -0.04223500       2.71216700
Pt       8.41799000       4.86013000      16.87326000      -0.46937600      -0.24360800       1.57750600
Pt       5.61200000       4.86013000      16.87326000       0.53067700       0.26571200       1.36408100
Pt       7.01499000       4.05011000      14.58218000       0.05460700      -0.08439100      -0.41832500
Pt       7.01499000       2.43007000      16.87326000      -0.06920700      -0.10446400       1.09098600
Pt       4.20900000       2.43007000      16.87326000       0.14150600      -0.47904800       1.22541800
Pt       1.40300000       2.43007000      16.87326000       0.46697000      -0.30390600      -0.33889800
Pt       5.61200000       0.00000000      16.87326000      -0.33451900      -0.10678200       0.64062600
Pt       2.80600000       0.00000000      16.87326000      -0.16357400       0.81511700      -0.34815700
Pt       0.00000000       0.00000000      16.87326000       0.37898500       0.37084900       0.89484900
Pt       8.41799000       6.48017000      14.58218000       0.08726200       0.13654500      -0.41030600
Pt       5.61200000       6.48017000      14.58218000      -0.05841200       0.13544200      -0.45161300
Pt      11.22399000       6.48017000      14.58218000      -0.00674300       0.00370000      -0.94181600
Pt       2.80600000       4.86013000      16.87326000      -0.11432900      -0.46016400       0.83251100
Pt       0.00000000       0.00000000      10.00000000      -0.06527200      -0.02195800      -0.14675500
Pt       5.61200000       1.62004000      14.58218000      -0.09295100      -0.22203000      -0.69757100
Pt       2.80600000       0.00000000      10.00000000       0.01732300      -0.01827700      -0.13226700
Pt       5.61200000       0.00000000      10.00000000       0.02046500      -0.00680600      -0.12868500
Pt       1.40300000       2.43007000      10.00000000      -0.01529200       0.00696000      -0.11301800
Pt       4.20900000       2.43007000      10.00000000       0.03098300       0.01523400      -0.15707100
Pt       7.01499000       2.43007000      10.00000000      -0.01616800      -0.01356900      -0.10556000
Pt       2.80600000       4.86013000      10.00000000      -0.00816900       0.00209600      -0.07808100
Pt       5.61200000       4.86013000      10.00000000      -0.02103700       0.01198700      -0.09418900
Pt       8.41799000       4.86013000      10.00000000       0.00343600      -0.00011700      -0.10932300
Pt       1.40300000       0.81002000      12.29109000       0.00121100      -0.01753400       0.02835800
Pt       4.20900000       0.81002000      12.29109000      -0.04381700       0.05988100       0.10290300
Pt       7.01499000       0.81002000      12.29109000       0.01029600       0.06654400       0.17718700
Pt       2.80600000       3.24009000      12.29109000       0.00690500      -0.12319700       0.14390000
Pt       5.61200000       3.24009000      12.29109000       0.02786700      -0.00397600      -0.06745900
Pt       8.41799000       3.24009000      12.29109000      -0.02487000       0.00566300      -0.04560300
Pt       4.20900000       5.67015000      12.29109000       0.11504300       0.02896800       0.16974500
Pt       7.01499000       5.67015000      12.29109000      -0.01085200      -0.02513300      -0.04944400
Pt       9.82099000       5.67015000      12.29109000      -0.08035700      -0.02160900       0.23934500
Pt       8.41799000       1.62004000      14.58218000      -0.00946900       0.04731100      -0.15359100
Pt       2.80600000       1.62004000      14.58218000       0.12217900       0.09660600       0.01815400
Pt       9.82099000       4.05011000      14.58218000      -0.01682000       0.08789300      -0.15381500
Pt       4.20900000       4.05011000      14.58218000      -0.06202200       0.12002700      -0.26492800
46
Lattice="8.417993093 0.0 0.0 4.208996546 7.290195867 0.0 0.0 0.0 29.886262579" Properties=species:S:1:pos:R:3:forces:R:3 energy=-289.1074962 pbc="T T T"
C        2.80600000       0.00000000      18.72826000       0.03958100       0.24199700       0.49305500
C        7.01499000       0.81002000      18.27026000      -0.05915800      -0.13634100      -3.21870400
C        7.01499000       4.05011000      18.27026000      -0.11739200      -0.19795400      -2.85144900
C        4.20900000       4.86013000      18.49926000      -0.04455800       0.31531300      -2.61070700
C        9.82099000       4.05011000      18.27026000       0.15736300      -0.24933400      -3.04776500
O        7.01499000       0.81002000      19.42826000       0.00721200      -0.08437700       3.09050400
O        2.80600000       0.00000000      19.88626000      -0.00784400      -0.03136000      -0.26891300
O        4.20900000       4.86013000      19.65726000       0.00516000      -0.03854400       1.16998800
O        7.01499000       4.05011000      19.42826000      -0.03482800       0.00791400       2.82434000
O        9.82099000       4.05011000      19.42826000       0.03041000      -0.07519500       2.87668200
Pt       8.41799000       4.86013000      16.87326000       0.15128700      -0.13180000       0.61311800
Pt       5.61200000       4.86013000      16.87326000      -0.58189400      -0.35772000       1.39877900
Pt       7.01499000       4.05011000      14.58218000      -0.13539400       0.00943300      -0.44090400
Pt       7.01499000       2.43007000      16.87326000      -0.14712100      -0.03123800       0.60989700
Pt       4.20900000       2.43007000      16.87326000      -0.10453600      -0.28442300      -0.46061300
Pt       1.40300000       2.43007000      16.87326000       0.22513000       0.25539900       0.35120500
Pt       5.61200000       0.00000000      16.87326000       0.10156200       0.31976000       0.30895100
Pt       2.80600000       0.00000000      16.87326000       0.13566200       0.40151300       0.65458000
Pt       0.00000000       0.00000000      16.87326000      -0.17249900       0.38031100       0.29619900
Pt       8.41799000       6.48017000      14.58218000      -0.01143300       0.12091000      -0.08789300
Pt       5.61200000       6.48017000      14.58218000       0.02388500       0.11609800      -0.14595900
Pt      11.22399000       6.48017000      14.58218000      -0.02267100      -0.10779500      -0.48117200
Pt       2.80600000       4.86013000      16.87326000       0.42664800      -0.31001200       1.44353600
Pt       0.00000000       0.00000000      10.00000000       0.01120300      -0.01977900      -0.04541600
Pt       5.61200000       1.62004000      14.58218000      -0.06530600       0.04752000      -0.42822500
Pt       2.80600000       0.00000000      10.00000000      -0.00370100       0.01307500      -0.12776300
Pt       5.61200000       0.00000000      10.00000000      -0.00101800      -0.05610900      -0.08172200
Pt       1.40300000       2.43007000      10.00000000      -0.00330800       0.01717300      -0.15144800
Pt       4.20900000       2.43007000      10.00000000      -0.01078700       0.02989600      -0.13758400
Pt       7.01499000       2.43007000      10.00000000       0.00647800       0.02071600      -0.16950300
Pt       2.80600000       4.86013000      10.00000000       0.00748500       0.02495300      -0.29315300
Pt       5.61200000       4.86013000      10.00000000      -0.06061100      -0.01216600      -0.08438300
Pt       8.41799000       4.86013000      10.00000000       0.05310700      -0.01873400      -0.05743000
Pt       1.40300000       0.81002000      12.29109000       0.09685500       0.03826600       0.12729500
Pt       4.20900000       0.81002000      12.29109000      -0.03731800      -0.00468700       0.03463400
Pt       7.01499000       0.81002000      12.29109000      -0.04732700       0.09487500       0.11615000
Pt       2.80600000       3.24009000      12.29109000      -0.00895500       0.06318000      -0.01173900
Pt       5.61200000       3.24009000      12.29109000       0.04911700      -0.04656300       0.07652500
Pt       8.41799000       3.24009000      12.29109000      -0.03983400      -0.07522700       0.08268800
Pt       4.20900000       5.67015000      12.29109000      -0.07488300      -0.11935700       0.16926700
Pt       7.01499000       5.67015000      12.29109000       0.01401900      -0.00018900       0.03441400
Pt       9.82099000       5.67015000      12.29109000       0.04900900      -0.09851800       0.13934300
Pt       8.41799000       1.62004000      14.58218000       0.04435400      -0.01293500      -0.44088600
Pt       2.80600000       1.62004000      14.58218000       0.01092000      -0.12077800      -0.19518100
Pt       9.82099000       4.05011000      14.58218000       0.16535200       0.12721100      -0.51377800
Pt       4.20900000       4.05011000      14.58218000      -0.01942300      -0.02437900      -0.55886100
46
Lattice="8.417993093 0.0 0.0 4.208996546 7.290195867 0.0 0.0 0.0 29.657262579" Properties=species:S:1:pos:R:3:forces:R:3 energy=-285.49871425 pbc="T T T"
C        4.20900000       4.05011000      18.27026000      -1.13708700       1.79488500      -3.04370600
C        9.82099000       5.67015000      18.27026000      -1.51817900      -1.74900800      -3.07491600
C        8.41799000       2.43007000      18.49926000       1.11336400       0.42884200      -2.63101300
C        7.01499000       0.00000000      18.49926000       2.10847900       1.32937200      -2.21963600
C        5.61200000       2.43007000      18.49926000       1.03356000      -1.57201200      -2.21936000
O        9.82099000       5.67015000      19.42826000      -1.70434600      -1.85088800       2.88868900
O        4.20900000       4.05011000      19.42826000      -1.58201700       1.85074000       2.84635100
O        7.01499000       0.00000000      19.65726000       1.15863100       1.18771600       0.92974500
O        8.41799000       2.43007000      19.65726000       0.09928300       0.09315900       1.14982700
O        5.61200000       2.43007000      19.65726000       1.05499300      -1.33346100       0.84214500
Pt       8.41799000       4.86013000      16.87326000      -0.03205900       0.54593300       0.54944700
Pt       5.61200000       4.86013000      16.87326000       0.03309400       0.63655300       0.45367700
Pt       7.01499000       4.05011000      14.58218000       0.12023800       0.07960700      -0.38954900
Pt       7.01499000       2.43007000      16.87326000       0.02268400       0.31337400       2.17655300
Pt       4.20900000       2.43007000      16.87326000       0.03608400      -0.54256100       1.41280900
Pt       1.40300000       2.43007000      16.87326000      -0.47049000      -0.54190300       1.10129200
Pt       5.61200000       0.00000000      16.87326000      -0.02004400      -0.16849500       1.12419900
Pt       2.80600000       0.00000000      16.87326000      -0.33040400      -0.02322200      -0.27808100
Pt       0.00000000       0.00000000      16.87326000      -0.15028300      -0.39639300       1.15314000
Pt       8.41799000       6.48017000      14.58218000       0.04957800       0.15762100      -0.26877500
Pt       5.61200000       6.48017000      14.58218000      -0.11802800       0.16137700      -0.05729200
Pt      11.22399000       6.48017000      14.58218000       0.05266100      -0.10318100      -0.82627400
Pt       2.80600000       4.86013000      16.87326000       0.16870300      -0.45978600       0.58447800
Pt       0.00000000       0.00000000      10.00000000      -0.04708100      -0.00798300      -0.16553900
Pt       5.61200000       1.62004000      14.58218000       0.03632300      -0.11334900      -0.42402700
Pt       2.80600000       0.00000000      10.00000000       0.01364100       0.01081600      -0.13893000
Pt       5.61200000       0.00000000      10.00000000       0.03302300       0.01073300      -0.13223400
Pt       1.40300000       2.43007000      10.00000000       0.00219000       0.00591400      -0.09521700
Pt       4.20900000       2.43007000      10.00000000      -0.01436100      -0.03601600      -0.08373400
Pt       7.01499000       2.43007000      10.00000000       0.01794600       0.00217400      -0.10382800
Pt       2.80600000       4.86013000      10.00000000      -0.00809000      -0.00570700      -0.12210900
Pt       5.61200000       4.86013000      10.00000000      -0.02428200      -0.00856300      -0.12735800
Pt       8.41799000       4.86013000      10.00000000       0.03492200      -0.02724000      -0.11407800
Pt       1.40300000       0.81002000      12.29109000       0.02927300      -0.07916600       0.06550000
Pt       4.20900000       0.81002000      12.29109000      -0.01667100      -0.06808000       0.08883700
Pt       7.01499000       0.81002000      12.29109000       0.04421500       0.02882700       0.05413200
Pt       2.80600000       3.24009000      12.29109000       0.03100000      -0.01171200       0.22734500
Pt       5.61200000       3.24009000      12.29109000       0.05852800       0.02841500      -0.02728700
Pt       8.41799000       3.24009000      12.29109000      -0.09992000      -0.02117200       0.06576100
Pt       4.20900000       5.67015000      12.29109000       0.05126900       0.05483000       0.13822800
Pt       7.01499000       5.67015000      12.29109000      -0.03741300      -0.04126900       0.04886400
Pt       9.82099000       5.67015000      12.29109000       0.01554200       0.05165400       0.16658200
Pt       8.41799000       1.62004000      14.58218000      -0.06642900       0.08577200      -0.50648100
Pt       2.80600000       1.62004000      14.58218000       0.04006300       0.22287800       0.16373600
Pt       9.82099000       4.05011000      14.58218000       0.05396600      -0.01722400      -0.52514200
Pt       4.20900000       4.05011000      14.58218000      -0.13606900       0.09720100      -0.65677400
46
Lattice="8.417993093 0.0 0.0 4.208996546 7.290195867 0.0 0.0 0.0 29.886262579" Properties=species:S:1:pos:R:3:forces:R:3 energy=-287.88307416 pbc="T T T"
C        7.01499000       4.86013000      18.49926000       0.66651200      -0.06022600      -3.05705400
C        4.20900000       5.67015000      18.27026000      -0.67032000       0.27438900      -3.65301600
C        7.01499000       2.43007000      18.72826000       0.50699400      -1.16291700       0.38414300
C        2.80600000       0.00000000      18.72826000      -0.10693200       0.81335200       0.42045100
C        4.20900000       2.43007000      18.72826000      -0.26952400       0.22487100       0.13321900
O        4.20900000       5.67015000      19.42826000      -0.07503300       0.03887700       3.35298200
O        7.01499000       4.86013000      19.65726000      -0.03258300      -0.00221600       1.38000100
O        2.80600000       0.00000000      19.88626000      -0.07516100       0.58266900      -0.15442700
O        7.01499000       2.43007000      19.88626000       0.12206100      -0.70545900      -0.13056800
O        4.20900000       2.43007000      19.88626000      -0.05672200       0.13610100      -0.03785900
Pt       8.41799000       4.86013000      16.87326000       0.03697900      -0.18775800       1.09574800
Pt       5.61200000       4.86013000      16.87326000       0.45932100      -0.00176200       1.22977000
Pt       7.01499000       4.05011000      14.58218000      -0.08701000      -0.18243200      -0.43839800
Pt       7.01499000       2.43007000      16.87326000       0.44099200      -0.62284100       0.60226300
Pt       4.20900000       2.43007000      16.87326000      -0.27668700      -0.01223500       0.68835500
Pt       1.40300000       2.43007000      16.87326000      -0.10823800       0.30248600      -0.38190300
Pt       5.61200000       0.00000000      16.87326000       0.18343300      -0.41985100      -0.39610500
Pt       2.80600000       0.00000000      16.87326000       0.07110500       0.39379100       0.54834900
Pt       0.00000000       0.00000000      16.87326000      -0.29425100      -0.01007400       0.41339200
Pt       8.41799000       6.48017000      14.58218000      -0.07232400       0.11794600      -0.23068900
Pt       5.61200000       6.48017000      14.58218000       0.15292700       0.15262000      -0.60936700
Pt      11.22399000       6.48017000      14.58218000      -0.10053100       0.04219400      -0.48837400
Pt       2.80600000       4.86013000      16.87326000      -0.47280900       0.22486200       0.47426900
Pt       0.00000000       0.00000000      10.00000000       0.00487100      -0.01043000      -0.23524100
Pt       5.61200000       1.62004000      14.58218000      -0.00068300       0.11974100      -0.08013800
Pt       2.80600000       0.00000000      10.00000000      -0.01189500      -0.01185300      -0.25589400
Pt       5.61200000       0.00000000      10.00000000      -0.00161300       0.01844600      -0.06006300
Pt       1.40300000       2.43007000      10.00000000       0.02981200      -0.03208300      -0.10466700
Pt       4.20900000       2.43007000      10.00000000       0.01635700      -0.01511100      -0.12842600
Pt       7.01499000       2.43007000      10.00000000      -0.03945800      -0.03584100      -0.09985500
Pt       2.80600000       4.86013000      10.00000000       0.01056800      -0.00091300      -0.21619000
Pt       5.61200000       4.86013000      10.00000000       0.00165600       0.01101900      -0.03736200
Pt       8.41799000       4.86013000      10.00000000      -0.00563700       0.05799500      -0.07246800
Pt       1.40300000       0.81002000      12.29109000       0.00534300      -0.03388700      -0.00865600
Pt       4.20900000       0.81002000      12.29109000      -0.16021300       0.02354800       0.10284800
Pt       7.01499000       0.81002000      12.29109000       0.14621500       0.00008500       0.13152400
Pt       2.80600000       3.24009000      12.29109000      -0.02318500       0.01502200       0.03544700
Pt       5.61200000       3.24009000      12.29109000      -0.00735800      -0.02671800       0.22826900
Pt       8.41799000       3.24009000      12.29109000       0.02377400      -0.03101900      -0.02081700
Pt       4.20900000       5.67015000      12.29109000      -0.09146500       0.05352200       0.07170400
Pt       7.01499000       5.67015000      12.29109000       0.00053700       0.12385800       0.16215300
Pt       9.82099000       5.67015000      12.29109000       0.09097300      -0.11999800       0.13244800
Pt       8.41799000       1.62004000      14.58218000      -0.16903500      -0.02949100      -0.14826600
Pt       2.80600000       1.62004000      14.58218000       0.18455400      -0.11589300      -0.26392900
Pt       9.82099000       4.05011000      14.58218000      -0.03917300       0.18965800       0.01251600
Pt       4.20900000       4.05011000      14.58218000       0.09285600      -0.08604300      -0.29011700
46
Lattice="8.417993093 0.0 0.0 4.208996546 7.290195867 0.0 0.0 0.0 29.886262579" Properties=species:S:1:pos:R:3:forces:R:3 energy=-286.39351127 pbc="T T T"
C        9.82099000       5.67015000      18.27026000      -1.32233100      -2.16310300      -3.44104200
C        5.61200000       1.62004000      18.27026000      -1.34883400       2.15442300      -3.37560900
C        7.01499000       0.00000000      18.49926000       4.29617800       0.07407000      -2.16542500
C        1.40300000       2.43007000      18.72826000       0.05996900      -0.11318900       0.36026900
C        5.61200000       4.86013000      18.72826000       0.05474300       0.13964700       0.37694900
O        5.61200000       1.62004000      19.42826000      -1.65464600       1.80867500       3.11339700
O        9.82099000       5.67015000      19.42826000      -1.66216500      -1.79509900       3.16868000
O        1.40300000       2.43007000      19.88626000      -0.01563300      -0.00645100      -0.18264300
O        7.01499000       0.00000000      19.65726000       2.25941200      -0.02387300       0.92491700
O        5.61200000       4.86013000      19.88626000      -0.01454600      -0.00512200      -0.19144300
Pt       8.41799000       4.86013000      16.87326000       0.05352900       0.17458900       0.48096300
Pt       5.61200000       4.86013000      16.87326000       0.11963900       0.16102400       0.69328800
Pt       7.01499000       4.05011000      14.58218000      -0.01488300       0.17323800      -0.20014500
Pt       7.01499000       2.43007000      16.87326000      -0.17139800       0.18663200       0.29971500
Pt       4.20900000       2.43007000      16.87326000       0.14091100      -0.27020900       0.41345800
Pt       1.40300000       2.43007000      16.87326000       0.12788600      -0.18840200       0.76366900
Pt       5.61200000       0.00000000      16.87326000      -0.14475300       0.06898500       0.98802600
Pt       2.80600000       0.00000000      16.87326000      -0.18943000       0.02600800      -0.44858400
Pt       0.00000000       0.00000000      16.87326000      -0.57742800      -0.13166400       1.25422300
Pt       8.41799000       6.48017000      14.58218000       0.08494400       0.16153500      -0.24755500
Pt       5.61200000       6.48017000      14.58218000      -0.10287100       0.00354800       0.02111200
Pt      11.22399000       6.48017000      14.58218000       0.01517800      -0.05642900      -0.81927100
Pt       2.80600000       4.86013000      16.87326000      -0.10062100      -0.28152900       0.27568800
Pt       0.00000000       0.00000000      10.00000000      -0.03248200       0.02050200      -0.08692900
Pt       5.61200000       1.62004000      14.58218000      -0.05089700      -0.13465600      -0.62456000
Pt       2.80600000       0.00000000      10.00000000       0.01602500       0.02691600      -0.04293400
Pt       5.61200000       0.00000000      10.00000000       0.01532600      -0.01456100      -0.27937300
Pt       1.40300000       2.43007000      10.00000000      -0.00003500       0.01039600      -0.30718300
Pt       4.20900000       2.43007000      10.00000000      -0.05455500      -0.02254800      -0.07650300
Pt       7.01499000       2.43007000      10.00000000       0.05521000      -0.01905400      -0.04945500
Pt       2.80600000       4.86013000      10.00000000      -0.01813300      -0.01745600      -0.06436900
Pt       5.61200000       4.86013000      10.00000000      -0.00752100      -0.01167500      -0.18730500
Pt       8.41799000       4.86013000      10.00000000       0.05196700      -0.02431300      -0.10624600
Pt       1.40300000       0.81002000      12.29109000      -0.01250400       0.09434900       0.06246700
Pt       4.20900000       0.81002000      12.29109000       0.12266300      -0.05069000       0.09017600
Pt       7.01499000       0.81002000      12.29109000      -0.12852700      -0.05719100       0.10892600
Pt       2.80600000       3.24009000      12.29109000      -0.08465300      -0.10433900       0.15872300
Pt       5.61200000       3.24009000      12.29109000       0.01203300       0.06647700      -0.01441100
Pt       8.41799000       3.24009000      12.29109000       0.04161800      -0.03886900       0.08668800
Pt       4.20900000       5.67015000      12.29109000       0.15082800      -0.01976100       0.14559800
Pt       7.01499000       5.67015000      12.29109000      -0.04950100      -0.09108500       0.07077600
Pt       9.82099000       5.67015000      12.29109000      -0.01002500       0.16655700       0.12432000
Pt       8.41799000       1.62004000      14.58218000       0.21022800       0.09703600      -0.30029500
Pt       2.80600000       1.62004000      14.58218000      -0.15309100       0.12598800      -0.22119500
Pt       9.82099000       4.05011000      14.58218000       0.02246800      -0.24854100      -0.45015500
Pt       4.20900000       4.05011000      14.58218000       0.01070700       0.14921300      -0.09940200
46