18
Lattice="5.611995395 0.0 0.0 2.805997698 4.860130578 0.0 0.0 0.0 29.886262579" Properties=species:S:1:pos:R:3:forces:R:3 energy=-108.92974224 pbc="T T T"
C        4.20900000       2.43007000      18.72826000       0.00000000       0.00000000       0.02991600
O        4.20900000       2.43007000      19.88626000       0.00000000       0.00000000       0.02562300
Pt       4.20900000       2.43007000      16.87326000      -0.00000000       0.00000000       1.04250300
Pt       1.40300000       2.43007000      16.87326000      -0.00000000      -0.00065800      -0.18248500
Pt       2.80600000       0.00000000      16.87326000      -0.00057000       0.00032900      -0.18248500
Pt       0.00000000       0.00000000      16.87326000       0.00057000       0.00032900      -0.18248500
Pt       4.20900000       4.05011000      14.58218000       0.00000000      -0.12614200      -0.22827000
Pt       7.01499000       4.05011000      14.58218000      -0.00000000       0.00000000      -0.11687800
Pt       2.80600000       1.62004000      14.58218000       0.10924200       0.06307100      -0.22827000
Pt       0.00000000       0.00000000      10.00000000      -0.04075200      -0.02352800      -0.10876000
Pt       2.80600000       3.24009000      12.29109000      -0.00664600       0.00383700       0.22772200
Pt       4.20900000       0.81002000      12.29109000       0.00000000      -0.00767400       0.22772200
Pt       1.40300000       0.81002000      12.29109000      -0.00000000       0.00000000      -0.01785100
Pt       4.20900000       2.43007000      10.00000000       0.00000000       0.00000000      -0.08793700
Pt       1.40300000       2.43007000      10.00000000       0.00000000       0.04705600      -0.10876000
Pt       2.80600000       0.00000000      10.00000000       0.04075200      -0.02352800      -0.10876000
Pt       5.61200000       3.24009000      12.29109000       0.00664600       0.00383700       0.22772200
Pt       5.61200000       1.62004000      14.58218000      -0.10924200       0.06307100      -0.22827000
18
Lattice="5.611995395 0.0 0.0 2.805997698 4.860130578 0.0 0.0 0.0 29.428262579" Properties=species:S:1:pos:R:3:forces:R:3 energy=-109.01510922 pbc="T T T"
C        5.61200000       3.24009000      18.27026000      -0.00000000      -0.00000000      -3.23954400
O        5.61200000       3.24009000      19.42826000      -0.00000000      -0.00000000       3.04556300
Pt       4.20900000       2.43007000      16.87326000      -0.27367000      -0.15800300       0.54743800
Pt       1.40300000       2.43007000      16.87326000       0.27367000      -0.15800300       0.54743800
Pt       2.80600000       0.00000000      16.87326000      -0.00000000       0.31600600       0.54743800
Pt       0.00000000       0.00000000      16.87326000      -0.00000000      -0.00000000      -0.24968500
Pt       4.20900000       4.05011000      14.58218000      -0.07801900       0.04504400      -0.44557500
Pt       7.01499000       4.05011000      14.58218000       0.07801900       0.04504400      -0.44557500
Pt       2.80600000       1.62004000      14.58218000      -0.00000000      -0.00000000      -0.04175000
Pt       0.00000000       0.00000000      10.00000000      -0.00000000      -0.00000000      -0.16786700
Pt       2.80600000       3.24009000      12.29109000      -0.00000000       0.05218200       0.10569300
Pt       4.20900000       0.81002000      12.29109000       0.04519100      -0.02609100       0.10569300
Pt       1.40300000       0.81002000      12.29109000      -0.04519100      -0.02609100       0.10569300
Pt       4.20900000       2.43007000      10.00000000       0.01593400       0.00919900      -0.06443100
Pt       1.40300000       2.43007000      10.00000000      -0.01593400       0.00919900      -0.06443100
Pt       2.80600000       0.00000000      10.00000000      -0.00000000      -0.01839900      -0.06443100
Pt       5.61200000       3.24009000      12.29109000      -0.00000000      -0.00000000       0.22391100
Pt       5.61200000       1.62004000      14.58218000      -0.00000000      -0.09008800      -0.44557500
18
Lattice="5.611995395 0.0 0.0 2.805997698 4.860130578 0.0 0.0 0.0 29.657262579" Properties=species:S:1:pos:R:3:forces:R:3 energy=-108.86927492 pbc="T T T"
C        5.61200000       2.43007000      18.49926000       0.00000000       0.04503200      -3.06826600
O        5.61200000       2.43007000      19.65726000       0.00000000      -0.01434700       1.51840400
Pt       4.20900000       2.43007000      16.87326000       0.26982800      -0.09497600       1.31994900
Pt       1.40300000       2.43007000      16.87326000      -0.26982800      -0.09497600       1.31994900
Pt       2.80600000       0.00000000      16.87326000       0.00000000       0.39344500      -0.14832000
Pt       0.00000000       0.00000000      16.87326000       0.00000000      -0.30424700      -0.11443500
Pt       4.20900000       4.05011000      14.58218000      -0.05441600       0.01762900      -0.31887700
Pt       7.01499000       4.05011000      14.58218000       0.05441600       0.01762900      -0.31887700
Pt       2.80600000       1.62004000      14.58218000       0.00000000       0.18832500       0.15041500
Pt       0.00000000       0.00000000      10.00000000       0.00000000      -0.05282700      -0.18360400
Pt       2.80600000       3.24009000      12.29109000       0.00000000      -0.00973500       0.29276300
Pt       4.20900000       0.81002000      12.29109000       0.07845000      -0.02297600       0.03662300
Pt       1.40300000       0.81002000      12.29109000      -0.07845000      -0.02297600       0.03662300
Pt       4.20900000       2.43007000      10.00000000      -0.00628100       0.02488100      -0.06315300
Pt       1.40300000       2.43007000      10.00000000       0.00628100       0.02488100      -0.06315300
Pt       2.80600000       0.00000000      10.00000000       0.00000000      -0.00531800      -0.02586700
Pt       5.61200000       3.24009000      12.29109000       0.00000000       0.00056200       0.21602000
Pt       5.61200000       1.62004000      14.58218000       0.00000000      -0.09000500      -0.58619500
18
Lattice="5.611995395 0.0 0.0 2.805997698 4.860130578 0.0 0.0 0.0 29.428262579" Properties=species:S:1:pos:R:3:forces:R:3 energy=-109.00685361 pbc="T T T"
C        2.80600000       1.62004000      18.27026000      -0.00000000       0.00000000      -3.25487400
O        2.80600000       1.62004000      19.42826000      -0.00000000       0.00000000       3.02736000
Pt       4.20900000       2.43007000      16.87326000       0.11882200       0.06860200       0.56503700
Pt       1.40300000       2.43007000      16.87326000      -0.11882200       0.06860200       0.56503700
Pt       2.80600000       0.00000000      16.87326000      -0.00000000      -0.13720400       0.56503700
Pt       0.00000000       0.00000000      16.87326000      -0.00000000       0.00000000      -0.36200600
Pt       4.20900000       4.05011000      14.58218000       0.04283000      -0.02472800      -0.23008800
Pt       7.01499000       4.05011000      14.58218000      -0.04283000      -0.02472800      -0.23008800
Pt       2.80600000       1.62004000      14.58218000      -0.00000000       0.00000000      -0.60922900
Pt       0.00000000       0.00000000      10.00000000      -0.00000000       0.00000000      -0.05733400
Pt       2.80600000       3.24009000      12.29109000       0.00000000      -0.02301200       0.07376800
Pt       4.20900000       0.81002000      12.29109000      -0.01992900       0.01150600       0.07376800
Pt       1.40300000       0.81002000      12.29109000       0.01992900       0.01150600       0.07376800
Pt       4.20900000       2.43007000      10.00000000       0.03875000       0.02237200      -0.10588400
Pt       1.40300000       2.43007000      10.00000000      -0.03875000       0.02237200      -0.10588400
Pt       2.80600000       0.00000000      10.00000000      -0.00000000      -0.04474500      -0.10588400
Pt       5.61200000       3.24009000      12.29109000      -0.00000000       0.00000000       0.34758400
Pt       5.61200000       1.62004000      14.58218000       0.00000000       0.04945600      -0.23008800
