88
Lattice="11.223990791 0.0 0.0 5.611995395 9.720261156 0.0 0.0 0.0 29.886262579" Properties=species:S:1:pos:R:3:forces:R:3 energy=-557.09672127 pbc="T T T"
C        9.82099000       5.67015000      18.27026000      -1.67527400      -1.48780000      -3.08292100
C       12.62699000       4.86013000      18.49926000      -0.24801600      -0.61708500      -2.34036000
C        7.01499000       4.05011000      18.27026000      -0.14804500      -0.17036300      -2.99428000
C        4.20900000       5.67015000      18.27026000       1.74135500      -1.58276900      -2.99840100
C        4.20900000       0.00000000      18.49926000      -0.01144700       0.16786100      -2.61816900
C        9.82099000       0.00000000      18.49926000       0.23296900      -0.60845700      -2.74281200
C        1.40300000       0.00000000      18.49926000      -0.19897500      -0.40842700      -2.82372800
C        9.82099000       2.43007000      18.72826000       0.05386200       0.95676200       0.59746600
C        7.01499000       0.00000000      18.49926000      -0.02700100       0.99649000      -2.54141300
C        2.80600000       2.43007000      18.49926000       0.26093400       0.47695500      -2.85335800
C       11.22399000       7.29020000      18.49926000       1.06000600       1.70559100      -2.02962600
C       14.02999000       7.29020000      18.49926000      -1.06727200       1.70482100      -2.01895300
O        4.20900000       5.67015000      19.42826000       1.65422200      -1.81527500       2.87369700
O        1.40300000       0.00000000      19.65726000      -0.06159000      -0.09643800       1.19580400
O        2.80600000       2.43007000      19.65726000       0.04949000       0.06148500       1.36794500
O        9.82099000       5.67015000      19.42826000      -1.66049600      -1.80343200       2.93332600
O       11.22399000       7.29020000      19.65726000       1.04694000       1.30841800       0.82512600
O       14.02999000       7.29020000      19.65726000      -1.04817100       1.31585600       0.82225400
O        7.01499000       4.05011000      19.42826000       0.00697200      -0.07115900       3.02981200
O        4.20900000       0.00000000      19.65726000       0.00159300      -0.03542300       1.04719400
O       12.62699000       4.86013000      19.65726000      -0.04611000      -0.06111400       1.12028800
O        9.82099000       2.43007000      19.88626000       0.01122900       0.70354300      -0.28253100
O        7.01499000       0.00000000      19.65726000      -0.00046900       0.15024000       1.07399800
O        9.82099000       0.00000000      19.65726000       0.05714300      -0.71689800       1.06736600
Pt      15.43299000       8.91024000      14.58218000       0.05640800      -0.00986800      -0.21380000
Pt       7.01499000       8.91024000      14.58218000      -0.00639900       0.18915300      -0.22108000
Pt       9.82099000       8.91024000      14.58218000      -0.07186000       0.01849900      -0.18055900
Pt      12.62699000       8.91024000      14.58218000       0.02184800       0.16179500      -0.47956600
Pt       0.00000000       0.00000000      16.87326000       0.13079800      -0.56803000       2.38223900
Pt       2.80600000       0.00000000      16.87326000      -0.04314500      -0.72203400       2.19602400
Pt       5.61200000       0.00000000      16.87326000      -0.07516500       0.38937600       2.19134700
Pt       8.41799000       0.00000000      16.87326000      -0.04170200       0.06348800       2.02132000
Pt       1.40300000       2.43007000      16.87326000       0.76093800      -0.00862900       0.78519600
Pt       7.01499000       2.43007000      16.87326000      -0.28578600       0.56673400       0.15996300
Pt       9.82099000       2.43007000      16.87326000       0.14656500       0.40181300       0.53148700
Pt       2.80600000       4.86013000      16.87326000      -0.40119000      -0.49431600       1.00202100
Pt       8.41799000       4.86013000      16.87326000      -0.24781800       0.19278000       0.59668100
Pt      11.22399000       4.86013000      16.87326000       0.56695900      -0.62390600       1.14217300
Pt       4.20900000       7.29020000      16.87326000      -0.10073100      -0.15091300       1.08245300
Pt       7.01499000       7.29020000      16.87326000       0.01880800       0.01137800      -0.49528800
Pt       9.82099000       7.29020000      16.87326000       0.09868700      -0.17274500       1.06878000
Pt      12.62699000       7.29020000      16.87326000       0.00941500      -0.28926200       1.91795900
Pt       4.20900000       2.43007000      16.87326000      -0.63764900       0.06637100       0.98367600
Pt       5.61200000       4.86013000      16.87326000       0.13780900      -0.02425200       0.69164400
Pt       0.00000000       0.00000000      10.00000000       0.02936600       0.03596800      -0.10316900
Pt       5.61200000       6.48017000      14.58218000      -0.04283400       0.16234100      -0.21557500
Pt       7.01499000       0.81002000      12.29109000       0.01403700       0.02504000       0.11138600
Pt       4.20900000       0.81002000      12.29109000       0.00993400       0.04143100       0.11375300
Pt       1.40300000       0.81002000      12.29109000       0.04031000      -0.04234100       0.20080300
Pt      12.62699000       7.29020000      10.00000000      -0.01367500      -0.00414900      -0.19794000
Pt       9.82099000       7.29020000      10.00000000      -0.01614100       0.01687600      -0.22185200
Pt       7.01499000       7.29020000      10.00000000       0.02022500      -0.05436400      -0.14922700
Pt       4.20900000       7.29020000      10.00000000       0.01127700      -0.02232900      -0.15986700
Pt      11.22399000       4.86013000      10.00000000      -0.03234100       0.02084000      -0.11726900
Pt       9.82099000       0.81002000      12.29109000      -0.04902300       0.04544200       0.13360500
Pt       8.41799000       4.86013000      10.00000000      -0.00925000       0.00677300      -0.19650100
Pt       2.80600000       4.86013000      10.00000000       0.01569000      -0.00174400      -0.11688500
Pt       9.82099000       2.43007000      10.00000000      -0.00337000       0.01588700      -0.20675000
Pt       7.01499000       2.43007000      10.00000000      -0.01244500       0.00049500      -0.19148600
Pt       4.20900000       2.43007000      10.00000000       0.01070700       0.01018800      -0.21208500
Pt       1.40300000       2.43007000      10.00000000       0.00512800      -0.04656900      -0.08426800
Pt       8.41799000       0.00000000      10.00000000       0.00668600      -0.02053000      -0.16209300
Pt       5.61200000       0.00000000      10.00000000      -0.04144400      -0.00590300      -0.15375300
Pt       2.80600000       0.00000000      10.00000000       0.02025900      -0.01076300      -0.17923100
Pt       5.61200000       4.86013000      10.00000000       0.02240400       0.01021700      -0.22122400
Pt       8.41799000       6.48017000      14.58218000       0.05174100       0.14476400      -0.23564900
Pt       2.80600000       3.24009000      12.29109000       0.02450100      -0.02468300       0.07351500
Pt       8.41799000       3.24009000      12.29109000       0.03846100      -0.06461800       0.04332000
Pt      14.02999000       6.48017000      14.58218000      -0.19919000       0.11170000      -0.72752700
Pt       9.82099000       4.05011000      14.58218000       0.08997400      -0.06010200      -0.30038000
Pt       7.01499000       4.05011000      14.58218000      -0.01043300       0.14659200      -0.41247300
Pt       4.20900000       4.05011000      14.58218000      -0.06684100       0.10458400      -0.36146600
Pt      12.62699000       4.05011000      14.58218000      -0.02098100       0.11264200      -0.40108700
Pt       8.41799000       1.62004000      14.58218000       0.10530500       0.08757400      -0.42870400
Pt       5.61200000       1.62004000      14.58218000      -0.09585600       0.17386900      -0.23402700
Pt       2.80600000       1.62004000      14.58218000      -0.02993000      -0.09057100      -0.73370500
Pt       5.61200000       3.24009000      12.29109000      -0.02521100      -0.05278900       0.04076500
Pt      11.22399000       1.62004000      14.58218000       0.00438700       0.24481200      -0.16786500
Pt      11.22399000       8.10022000      12.29109000       0.01312300      -0.03692900       0.09991500
Pt       8.41799000       8.10022000      12.29109000       0.03725500       0.00110600       0.08381300
Pt       5.61200000       8.10022000      12.29109000      -0.03514400      -0.00140800       0.10178300
Pt      12.62699000       5.67015000      12.29109000      -0.01603600       0.01705300       0.10891900
Pt       9.82099000       5.67015000      12.29109000      -0.03632700       0.02806900       0.19934100
Pt       7.01499000       5.67015000      12.29109000      -0.00287500      -0.09903600       0.13360100
Pt       4.20900000       5.67015000      12.29109000       0.05528800      -0.03353100       0.22011600
Pt      11.22399000       3.24009000      12.29109000      -0.05334700      -0.05783100       0.10316000
Pt      14.02999000       8.10022000      12.29109000      -0.01832000      -0.02179400       0.08466500
Pt      11.22399000       6.48017000      14.58218000       0.18432100       0.11690500      -0.75079700
