38
Lattice="8.418 0.0 0.0 -4.209 7.290201849 0.0 0.0 0.0 26.09139" Properties=species:S:1:pos:R:3:forces:R:3 energy=-224.95908917 pbc="T T T"
C        1.34574000       2.41889000      16.93350000       0.01222700       0.00317700       0.08589500
O        1.30303000       2.41139000      18.09139000       0.01064800       0.00460200      -0.03289600
Pt       2.80634000       0.00262000       8.05717000       0.00151300      -0.00992900      -0.01542600
Pt       5.61265000       0.00005000       8.00000000       0.00003100      -0.00001400      -0.08601400
Pt      -1.40080000       2.42866000       8.05629000      -0.01110500       0.00871800      -0.01740900
Pt       1.40343000       2.43010000       8.07830000      -0.00062600       0.00000100      -0.00284200
Pt       4.20684000       2.42851000       8.05717000       0.00902800       0.00412100      -0.01680000
Pt       5.61199000       4.86014000       8.05338000       0.00049500      -0.00037700      -0.03897500
Pt       0.00243000       4.85907000       8.05670000      -0.00912900       0.00436400      -0.01499100
Pt       2.80384000       4.85884000       8.05709000       0.00685600       0.00635800      -0.01949200
Pt       1.40321000       0.81371000      10.37720000       0.00059100       0.02222100      -0.03480400
Pt       4.21399000       0.80707000      10.33228000       0.00333800      -0.00253800      -0.02126200
Pt       7.00937000       0.80675000      10.33116000      -0.00707800      -0.00395200      -0.02432100
Pt       0.00335000       3.23833000      10.37670000       0.01876700      -0.01027500      -0.03646700
Pt       2.80303000       3.23833000      10.37805000      -0.01963800      -0.01158100      -0.03120000
Pt       5.61222000       3.24109000      10.34464000      -0.00314600      -0.00518700      -0.03964300
Pt      -1.40393000       5.66954000      10.34478000       0.00612800       0.00358300      -0.04091300
Pt       1.40280000       5.67624000      10.33186000       0.00416200       0.00361900      -0.01904600
Pt       0.00001000       0.00251000       8.05640000      -0.00089000      -0.01167000      -0.01799700
Pt       4.19184000       7.26270000      14.89609000      -0.01828900      -0.01332500       0.01264300
Pt       2.78786000       1.63092000      12.66025000       0.00228000      -0.00168600       0.08974500
Pt      -0.01298000       4.88961000      14.89683000      -0.00656000       0.02376300       0.02020400
Pt       5.61135000       1.61788000      12.58427000       0.00014200      -0.02471500       0.00360600
Pt      -1.40368000       4.05092000      12.60747000      -0.02289300       0.01294100       0.00085800
Pt       1.40350000       4.02981000      12.65860000      -0.00059300       0.00380600       0.08916500
Pt       4.21147000       4.05144000      12.60773000       0.01493200       0.00799200       0.00935700
Pt      -2.80552000       6.47863000      12.60755000      -0.00004300      -0.02638200       0.00178100
Pt       0.00173000       6.48139000      12.58441000       0.02165300       0.01056800       0.00325400
Pt       2.82128000       4.88865000      14.89801000       0.00264400       0.01903600       0.01565300
Pt       2.80387000       6.48079000      12.58453000      -0.02082100       0.01379000       0.00184400
Pt      -1.38411000       7.26334000      14.89758000       0.01999700      -0.01244000       0.01815700
Pt       5.61247000       0.00001000      14.89953000       0.00216700       0.00043400       0.01362400
Pt       6.98289000       2.42769000      14.89560000      -0.02566400      -0.00578800       0.01747100
Pt       1.40574000       2.43010000      15.09247000       0.00079700      -0.00078500       0.03274700
Pt       4.24153000       2.42851000      14.89824000       0.01942700      -0.01016200       0.01767300
Pt      -2.80518000       4.86010000      14.90535000       0.00227900      -0.00013600       0.03251700
Pt       4.20996000       5.66977000      10.34473000      -0.00729100       0.00207300      -0.03981600
Pt       0.01588000       1.62903000      12.65501000      -0.00633700      -0.00422800       0.08412100
38
Lattice="8.418 0.0 0.0 -4.209 7.290201849 0.0 0.0 0.0 26.10188" Properties=species:S:1:pos:R:3:forces:R:3 energy=-224.96261503 pbc="T T T"
C        1.34824000       2.41969000      16.94421000       0.00428600       0.00037100       0.01078900
O        1.30523000       2.41196000      18.10188000       0.01584300       0.00667000      -0.02165800
Pt       2.80647000       0.00137000       8.05633000      -0.00164300       0.00337000       0.01038200
Pt       5.61254000       0.00003000       8.00000000      -0.00456500       0.00034300      -0.07269700
Pt      -1.40208000       2.42940000       8.05570000       0.00455900      -0.00046500       0.00508500
Pt       1.40322000       2.43011000       8.07216000       0.00122200       0.00045200       0.03983900
Pt       4.20797000       2.42916000       8.05628000      -0.00240100      -0.00017900       0.00925900
Pt       5.61182000       4.86018000       8.05192000       0.00122200       0.00007500      -0.02537700
Pt       0.00141000       4.85973000       8.05609000       0.00131300      -0.00308700       0.00906800
Pt       2.80482000       4.85971000       8.05609000      -0.00434300      -0.00392900       0.00734300
Pt       1.40341000       0.81570000      10.37881000      -0.00077700       0.01336100      -0.01499600
Pt       4.21215000       0.80807000      10.33460000       0.02289500      -0.01272000      -0.00023200
Pt       7.01070000       0.80758000      10.33282000      -0.02622300      -0.01486100       0.00783500
Pt       0.00514000       3.23748000      10.37837000       0.01116000      -0.00796700      -0.01535000
Pt       2.80134000       3.23723000      10.37973000      -0.01157800      -0.00616500      -0.01086100
Pt       5.61224000       3.24147000      10.34597000      -0.00140500      -0.00557500      -0.01857500
Pt      -1.40422000       5.66935000      10.34600000       0.00469100       0.00368500      -0.01872500
Pt       1.40282000       5.67418000      10.33412000       0.00052300       0.02510200       0.00496400
Pt       0.00001000       0.00121000       8.05568000      -0.00033700       0.00321000       0.00591700
Pt       4.19112000       7.26114000      14.90456000      -0.01115400      -0.00474900       0.00677500
Pt       2.78682000       1.63112000      12.67274000       0.00887100      -0.00481300       0.02483700
Pt      -0.01468000       4.89108000      14.90557000       0.00742700       0.00908100       0.00879700
Pt       5.61106000       1.61801000      12.59013000       0.00185700      -0.02567200      -0.01937100
Pt      -1.40393000       4.05094000      12.61391000      -0.02211400       0.01300500      -0.02087000
Pt       1.40318000       4.02882000      12.67083000       0.00101300       0.01183100       0.02341300
Pt       4.21135000       4.05119000      12.61451000       0.01860100       0.01124700      -0.01974500
Pt      -2.80555000       6.47843000      12.61421000       0.00026700      -0.02600600      -0.02112200
Pt       0.00162000       6.48144000      12.59019000       0.02139600       0.01080000      -0.01855200
Pt       2.82253000       4.88939000      14.90675000      -0.00313300       0.01034300       0.00723100
Pt       2.80391000       6.48063000      12.59009000      -0.02211300       0.01329100      -0.01878900
Pt      -1.38350000       7.26142000      14.90653000       0.00928600       0.00430400       0.00787900
Pt       5.61275000       0.00000000      14.90703000       0.00110900      -0.00023500       0.00917800
Pt       6.98124000       2.42810000      14.90452000      -0.01109500      -0.00995800       0.00527400
Pt       1.40393000       2.42990000      15.10057000       0.00756300       0.00016400       0.10611200
Pt       4.24300000       2.42893000      14.90725000       0.00162200      -0.00807900       0.00524400
Pt      -2.80489000       4.86006000      14.91580000      -0.00683200      -0.00040600      -0.00341200
Pt       4.21022000       5.66966000      10.34602000      -0.00508600       0.00197200      -0.01819700
Pt       0.01604000       1.62924000      12.66628000      -0.01192800      -0.00781300       0.02331100
38
Lattice="8.418 0.0 0.0 -4.209 7.290201849 0.0 0.0 0.0 26.09465" Properties=species:S:1:pos:R:3:forces:R:3 energy=-224.95547677 pbc="T T T"
C        1.34558000       2.41882000      16.92955000      -0.01283100      -0.00158900       0.81029200
O        1.30274000       2.41132000      18.09465000       0.03667600       0.00879800      -0.75199300
Pt       2.80633000       0.00290000       8.05715000      -0.00070300      -0.01764900      -0.01565300
Pt       5.61264000       0.00005000       8.00000000       0.00047700      -0.00018200      -0.09124000
Pt      -1.40053000       2.42849000       8.05629000      -0.01784600       0.01196400      -0.01332400
Pt       1.40343000       2.43009000       8.07866000      -0.00041000      -0.00006900      -0.00683400
Pt       4.20659000       2.42835000       8.05714000       0.01459100       0.00997400      -0.01694100
Pt       5.61196000       4.86016000       8.05352000       0.00094500      -0.00077600      -0.04012200
Pt       0.00266000       4.85894000       8.05668000      -0.01717800       0.01035200      -0.01128000
Pt       2.80360000       4.85868000       8.05708000       0.01445700       0.01127600      -0.01783500
Pt       1.40316000       0.81345000      10.37717000       0.00155100       0.02393800      -0.04548800
Pt       4.21430000       0.80689000      10.33212000       0.00126800      -0.00133100      -0.02118600
Pt       7.00913000       0.80661000      10.33109000      -0.00684300      -0.00425300      -0.02658400
Pt       0.00313000       3.23842000      10.37672000       0.01975600      -0.01047400      -0.04434000
Pt       2.80322000       3.23846000      10.37802000      -0.02062000      -0.01292100      -0.04222600
Pt       5.61222000       3.24093000      10.34474000      -0.00180500       0.00045400      -0.04711900
Pt      -1.40380000       5.66961000      10.34488000      -0.00120400       0.00063300      -0.04732900
Pt       1.40281000       5.67659000      10.33170000       0.00220900       0.00223400      -0.02210200
Pt       0.00001000       0.00281000       8.05641000      -0.00065200      -0.02172800      -0.01683700
Pt       4.19197000       7.26293000      14.89543000      -0.01944900      -0.02213800       0.01113100
Pt       2.78804000       1.63087000      12.65883000      -0.00092500      -0.00138800       0.09912500
Pt      -0.01277000       4.88940000      14.89620000      -0.01045200       0.02904900       0.01405700
Pt       5.61137000       1.61778000      12.58334000      -0.00006600      -0.02299200       0.01230000
Pt      -1.40364000       4.05088000      12.60643000      -0.02198500       0.01282900       0.01868400
Pt       1.40354000       4.02997000      12.65710000      -0.00007200       0.00338600       0.09522000
Pt       4.21143000       4.05144000      12.60673000       0.01832400       0.00954300       0.02089500
Pt      -2.80553000       6.47870000      12.60651000       0.00033000      -0.02625000       0.01925900
Pt       0.00181000       6.48144000      12.58346000       0.01991000       0.01110600       0.01436700
Pt       2.82114000       4.88849000      14.89726000       0.00680900       0.02584900       0.01352700
Pt       2.80376000       6.48082000      12.58364000      -0.01877000       0.01253800       0.01043600
Pt      -1.38423000       7.26365000      14.89686000       0.02040900      -0.02104400       0.01682500
Pt       5.61253000       0.00004000      14.89884000       0.00202500       0.00005400       0.00576000
Pt       6.98313000       2.42761000      14.89484000      -0.03042800      -0.00544100       0.01196500
Pt       1.40598000       2.43013000      15.08998000      -0.00354000      -0.00193800       0.02164000
Pt       4.24128000       2.42851000      14.89744000       0.02666700      -0.00742000       0.01662300
Pt      -2.80521000       4.86009000      14.90436000       0.00331500      -0.00002000       0.02420200
Pt       4.20983000       5.66984000      10.34482000      -0.00088200      -0.00167600      -0.04629200
Pt       0.01585000       1.62898000      12.65365000      -0.00305700      -0.00269800       0.08841700
38
Lattice="8.418 0.0 0.0 -4.209 7.290201849 0.0 0.0 0.0 26.08881" Properties=species:S:1:pos:R:3:forces:R:3 energy=-224.95691884 pbc="T T T"
C        1.34480000       2.41861000      16.93296000       0.02830400       0.00667000      -0.24007000
O        1.30270000       2.41131000      18.08881000       0.00147600       0.00253600       0.15291500
Pt       2.80639000       0.00344000       8.05718000      -0.00087300      -0.02175000      -0.02478600
Pt       5.61264000       0.00006000       8.00000000      -0.00131000      -0.00027500      -0.10384700
Pt      -1.40004000       2.42808000       8.05632000      -0.01971700       0.01368700      -0.02822300
Pt       1.40351000       2.43008000       8.07947000      -0.00096200       0.00004900      -0.01695100
Pt       4.20615000       2.42801000       8.05721000       0.01800200       0.01210900      -0.02613900
Pt      -2.80587000       4.86010000       8.05399000      -0.00014200      -0.00050200      -0.06712900
Pt       0.00314000       4.85877000       8.05670000      -0.01896500       0.00874900      -0.02510400
Pt       2.80309000       4.85845000       8.05713000       0.01659000       0.00999800      -0.02944800
Pt       1.40306000       0.81299000      10.37529000       0.00216600       0.02661300      -0.02748300
Pt       4.21486000       0.80657000      10.32997000      -0.00734800       0.00549200      -0.00728800
Pt       7.00874000       0.80637000      10.32911000      -0.00018600      -0.00016300      -0.00888100
Pt       0.00266000       3.23862000      10.37479000       0.02294100      -0.01187000      -0.02950700
Pt       2.80356000       3.23871000      10.37618000      -0.02277300      -0.01442500      -0.02516900
Pt       5.61220000       3.24049000      10.34288000      -0.00063300       0.00618500      -0.02797300
Pt      -1.40341000       5.66984000      10.34304000      -0.00596400      -0.00344600      -0.02832800
Pt       1.40281000       5.67720000      10.32962000       0.00353500      -0.00681300      -0.00720200
Pt      -0.00010000       0.00338000       8.05650000       0.00310000      -0.02305300      -0.03002400
Pt       4.19224000       7.26336000      14.89311000      -0.02303500      -0.02580800       0.02047200
Pt       2.78921000       1.63029000      12.65630000      -0.01446200       0.00711800       0.09293400
Pt      -0.01233000       4.88894000      14.89382000      -0.01451300       0.03233900       0.02237100
Pt       5.61136000       1.61753000      12.58237000       0.00250900      -0.01743400      -0.00020300
Pt      -1.40354000       4.05083000      12.60530000      -0.02271100       0.01263500      -0.00193700
Pt       1.40366000       4.03123000      12.65459000      -0.00145000      -0.01520700       0.09227900
Pt       4.21132000       4.05143000      12.60561000       0.01752600       0.00876900       0.00134700
Pt      -2.80553000       6.47886000      12.60538000      -0.00081100      -0.02603500       0.00164000
Pt       0.00207000       6.48159000      12.58237000       0.01225500       0.00612200       0.00000600
Pt       2.82081000       4.88811000      14.89483000       0.01005000       0.03297800       0.02183700
Pt       2.80352000       6.48086000      12.58266000      -0.01393800       0.01390100      -0.00181500
Pt      -1.38446000       7.26423000      14.89445000       0.02392300      -0.02745700       0.02498000
Pt       5.61238000       0.00004000      14.89630000       0.00253900      -0.00008200       0.01855600
Pt       6.98357000       2.42747000      14.89238000      -0.03135800      -0.00350400       0.02142700
Pt       1.40646000       2.43023000      15.08541000      -0.01750900      -0.00236900       0.17193400
Pt       4.24076000       2.42847000      14.89497000       0.03275000      -0.00887800       0.02377500
Pt      -2.80535000       4.86007000      14.90128000       0.00453700       0.00032800       0.03715900
Pt       4.20945000       5.67005000      10.34298000       0.00479200      -0.00347400      -0.02772500
Pt       0.01497000       1.62843000      12.65143000       0.01166500       0.00626700       0.08160000
38
Lattice="8.418 0.0 0.0 -4.209 7.290201849 0.0 0.0 0.0 26.09864" Properties=species:S:1:pos:R:3:forces:R:3 energy=-224.9620841 pbc="T T T"
C        1.34800000       2.41958000      16.94238000       0.00692100       0.00093600      -0.09456800
O        1.30435000       2.41173000      18.09864000       0.01065400       0.00532700       0.13070700
Pt       2.80629000       0.00055000       8.05632000       0.00025600       0.01486800       0.01424400
Pt       5.61263000       0.00003000       8.00000000      -0.00090100       0.00003300      -0.06648000
Pt      -1.40276000       2.42993000       8.05538000       0.01312800      -0.01057400       0.01447700
Pt       1.40324000       2.43012000       8.07401000       0.00051900      -0.00030000       0.02015000
Pt       4.20862000       2.42971000       8.05626000      -0.01196200      -0.00822200       0.01378300
Pt       5.61180000       4.86019000       8.05174000       0.01019500      -0.00352400      -0.02912900
Pt       0.00068000       4.85997000       8.05589000       0.01179600      -0.00416900       0.01472500
Pt       2.80563000       4.85998000       8.05610000      -0.01237200      -0.00575300       0.01241600
Pt       1.40348000       0.81562000      10.37936000      -0.00224200       0.01032800      -0.02475300
Pt       4.21197000       0.80825000      10.33529000       0.02264100      -0.01436100      -0.01571500
Pt       7.01094000       0.80769000      10.33361000      -0.02199100      -0.01259900      -0.01404300
Pt       0.00515000       3.23754000      10.37883000       0.00787900      -0.00669100      -0.02568700
Pt       2.80158000       3.23735000      10.38027000      -0.00863700      -0.00430500      -0.02310500
Pt       5.61227000       3.24194000      10.34640000      -0.00303400      -0.01573600      -0.02431100
Pt      -1.40466000       5.66909000      10.34649000       0.01519500       0.00993000      -0.02382500
Pt       1.40288000       5.67391000      10.33477000      -0.00084100       0.02623400      -0.01339600
Pt       0.00013000       0.00033000       8.05535000      -0.00594600       0.01643200       0.01388000
Pt       4.19100000       7.26114000      14.90306000      -0.01067400      -0.00215300       0.01411800
Pt       2.78554000       1.63195000      12.67138000       0.03384900      -0.01981000       0.03528800
Pt      -0.01461000       4.89119000      14.90397000       0.01023900       0.00593800       0.01709600
Pt       5.61124000       1.61840000      12.58971000       0.00105400      -0.03405500      -0.01654400
Pt      -1.40399000       4.05109000      12.61382000      -0.02058200       0.01038300      -0.01929400
Pt       1.40322000       4.02759000      12.66961000      -0.00166500       0.03613100       0.04051700
Pt       4.21163000       4.05136000      12.61406000       0.01530000       0.00884700      -0.01229600
Pt      -2.80551000       6.47820000      12.61389000      -0.00045300      -0.02089100      -0.01703000
Pt       0.00122000       6.48113000      12.58999000       0.02723500       0.01728100      -0.02193800
Pt       2.82233000       4.88964000      14.90547000      -0.00581600       0.00366400       0.00927900
Pt       2.80440000       6.48056000      12.58977000      -0.03006300       0.01462200      -0.01812700
Pt      -1.38336000       7.26133000      14.90503000       0.00704600       0.01028700       0.01031500
Pt       1.40368000       7.29018000      14.90631000       0.00127000       0.00021400       0.01257500
Pt       6.98128000       2.42811000      14.90302000      -0.00929200      -0.01187900       0.01271900
Pt       1.40408000       2.42983000      15.10036000       0.00396000       0.00326600       0.04934200
Pt       4.24310000       2.42872000      14.90589000      -0.00239100      -0.00821700       0.00842100
Pt      -2.80480000       4.86012000      14.91441000      -0.00897000      -0.00139600       0.00610300
Pt       4.21067000       5.66940000      10.34651000      -0.01376300       0.00659700      -0.02634500
Pt       0.01710000       1.62986000      12.66532000      -0.02754300      -0.01668400       0.03643200
38
Lattice="8.417993093 0.0 0.0 4.208996546 7.290195867 0.0 0.0 0.0 29.886262579" Properties=species:S:1:pos:R:3:forces:R:3 energy=-224.77748004 pbc="T T T"
C        4.20900000       2.43007000      18.72826000      -0.00000000       0.00000000       0.14094000
O        4.20900000       2.43007000      19.88626000      -0.00000000       0.00000000      -0.04434200
Pt       5.61200000       4.86013000      16.87326000       0.20857400       0.37112400      -0.04772800
Pt       5.61200000       1.62004000      14.58218000      -0.09960800       0.05750900      -0.16196800
Pt       9.82099000       4.05011000      14.58218000      -0.04444700       0.02566200      -0.18795300
Pt       4.20900000       4.05011000      14.58218000       0.00000000      -0.11501800      -0.16196800
Pt       7.01499000       4.05011000      14.58218000       0.04444700       0.02566200      -0.18795300
Pt      11.22399000       6.48017000      14.58218000      -0.00221900      -0.00128100      -0.25366800
Pt       5.61200000       6.48017000      14.58218000       0.00221900      -0.00128100      -0.25366800
Pt       8.41799000       4.86013000      16.87326000      -0.00000000       0.00000000       0.04190300
Pt       8.41799000       6.48017000      14.58218000      -0.00000000      -0.05132300      -0.18795300
Pt       2.80600000       0.00000000      16.87326000      -0.21711600      -0.36619200      -0.04772800
Pt       5.61200000       0.00000000      16.87326000       0.21711600      -0.36619200      -0.04772800
Pt       1.40300000       2.43007000      16.87326000      -0.42569000      -0.00493200      -0.04772800
Pt       4.20900000       2.43007000      16.87326000      -0.00000000       0.00000000       0.97037800
Pt       7.01499000       2.43007000      16.87326000       0.42569000      -0.00493200      -0.04772800
Pt       2.80600000       4.86013000      16.87326000      -0.20857400       0.37112400      -0.04772800
Pt       2.80600000       1.62004000      14.58218000       0.09960800       0.05750900      -0.16196800
Pt       0.00000000       0.00000000      16.87326000      -0.00000000       0.00000000       0.08058600
Pt       0.00000000       0.00000000      10.00000000      -0.00000000       0.00000000      -0.25332100
Pt       7.01499000       5.67015000      12.29109000      -0.01241300       0.00716700       0.19727300
Pt       2.80600000       0.00000000      10.00000000      -0.01298900       0.00300000      -0.04699500
Pt       5.61200000       0.00000000      10.00000000       0.01298900       0.00300000      -0.04699500
Pt       1.40300000       2.43007000      10.00000000      -0.00389600      -0.01274900      -0.04699500
Pt       4.20900000       2.43007000      10.00000000      -0.00000000       0.00000000      -0.06009400
Pt       7.01499000       2.43007000      10.00000000       0.00389600      -0.01274900      -0.04699500
Pt       2.80600000       4.86013000      10.00000000       0.00909200       0.00974800      -0.04699500
Pt       5.61200000       4.86013000      10.00000000      -0.00909200       0.00974800      -0.04699500
Pt       8.41799000       4.86013000      10.00000000      -0.00000000       0.00000000      -0.08436100
Pt       1.40300000       0.81002000      12.29109000      -0.11875000      -0.06856000       0.10526300
Pt       4.20900000       0.81002000      12.29109000      -0.00000000       0.00227500       0.22660200
Pt       7.01499000       0.81002000      12.29109000       0.11875000      -0.06856000       0.10526300
Pt       2.80600000       3.24009000      12.29109000       0.00197000      -0.00113800       0.22660200
Pt       5.61200000       3.24009000      12.29109000      -0.00197000      -0.00113800       0.22660200
Pt       8.41799000       3.24009000      12.29109000      -0.00000000      -0.01433400       0.19727300
Pt       4.20900000       5.67015000      12.29109000       0.00000000       0.13712100       0.10526300
Pt       9.82099000       5.67015000      12.29109000       0.01241300       0.00716700       0.19727300
Pt       8.41799000       1.62004000      14.58218000      -0.00000000       0.00256200      -0.25366800
38
Lattice="8.417993093 0.0 0.0 4.208996546 7.290195867 0.0 0.0 0.0 29.428262579" Properties=species:S:1:pos:R:3:forces:R:3 energy=-224.89910668 pbc="T T T"
C        8.41799000       3.24009000      18.27026000       0.00000000       0.00000000      -3.38093100
O        8.41799000       3.24009000      19.42826000       0.00000000       0.00000000       3.09572400
Pt       5.61200000       4.86013000      16.87326000      -0.30762600       0.17760800      -0.03740800
Pt       5.61200000       1.62004000      14.58218000       0.05233900       0.03021800      -0.19005500
Pt       9.82099000       4.05011000      14.58218000       0.09762400       0.05636300      -0.45468500
Pt       4.20900000       4.05011000      14.58218000       0.00000000       0.03329900      -0.21610300
Pt       7.01499000       4.05011000      14.58218000      -0.09762400       0.05636300      -0.45468500
Pt      11.22399000       6.48017000      14.58218000       0.02883800      -0.01665000      -0.21610300
Pt       5.61200000       6.48017000      14.58218000      -0.02883800      -0.01665000      -0.21610300
Pt       8.41799000       4.86013000      16.87326000      -0.00000000       0.35651000       0.67073600
Pt       8.41799000       6.48017000      14.58218000       0.00000000      -0.06043500      -0.19005500
Pt       2.80600000       0.00000000      16.87326000       0.00660300       0.00381200       0.01210100
Pt       5.61200000       0.00000000      16.87326000      -0.00660300       0.00381200       0.01210100
Pt       1.40300000       2.43007000      16.87326000       0.30874700      -0.17825500       0.67073600
Pt       4.20900000       2.43007000      16.87326000       0.00000000      -0.00762500       0.01210100
Pt       7.01499000       2.43007000      16.87326000      -0.30874700      -0.17825500       0.67073600
Pt       2.80600000       4.86013000      16.87326000       0.30762600       0.17760800      -0.03740800
Pt       2.80600000       1.62004000      14.58218000      -0.05233900       0.03021800      -0.19005500
Pt       0.00000000       0.00000000      16.87326000       0.00000000      -0.35521600      -0.03740800
Pt       0.00000000       0.00000000      10.00000000       0.00000000      -0.00077800      -0.08953900
Pt       7.01499000       5.67015000      12.29109000       0.02446000       0.04011400       0.19857400
Pt       2.80600000       0.00000000      10.00000000      -0.04075000      -0.02352700      -0.08312800
Pt       5.61200000       0.00000000      10.00000000       0.04075000      -0.02352700      -0.08312800
Pt       1.40300000       2.43007000      10.00000000       0.00771300      -0.00445300      -0.05856900
Pt       4.20900000       2.43007000      10.00000000       0.00000000       0.04705400      -0.08312800
Pt       7.01499000       2.43007000      10.00000000      -0.00771300      -0.00445300      -0.05856900
Pt       2.80600000       4.86013000      10.00000000       0.00067400       0.00038900      -0.08953900
Pt       5.61200000       4.86013000      10.00000000      -0.00067400       0.00038900      -0.08953900
Pt       8.41799000       4.86013000      10.00000000       0.00000000       0.00890600      -0.05856900
Pt       1.40300000       0.81002000      12.29109000       0.04696900       0.00112600       0.19857400
Pt       4.20900000       0.81002000      12.29109000       0.00000000       0.00000000      -0.02663500
Pt       7.01499000       0.81002000      12.29109000      -0.04696900       0.00112600       0.19857400
Pt       2.80600000       3.24009000      12.29109000       0.02250900      -0.04124000       0.19857400
Pt       5.61200000       3.24009000      12.29109000      -0.02250900      -0.04124000       0.19857400
Pt       8.41799000       3.24009000      12.29109000       0.00000000       0.00000000       0.24202500
Pt       4.20900000       5.67015000      12.29109000       0.00000000       0.00000000       0.21832500
Pt       9.82099000       5.67015000      12.29109000      -0.02446000       0.04011400       0.19857400
Pt       8.41799000       1.62004000      14.58218000       0.00000000      -0.11272600      -0.45468500
38
Lattice="8.417993093 0.0 0.0 4.208996546 7.290195867 0.0 0.0 0.0 29.657262579" Properties=species:S:1:pos:R:3:forces:R:3 energy=-224.71660211 pbc="T T T"
C        4.20900000       0.00000000      18.49926000       0.00000000       0.05885000      -3.12611600
O        4.20900000       0.00000000      19.65726000       0.00000000      -0.01768200       1.52995300
Pt       5.61200000       4.86013000      16.87326000      -0.10373600      -0.08823500       0.03059600
Pt       5.61200000       1.62004000      14.58218000       0.03958600       0.04124300      -0.32232500
Pt       9.82099000       4.05011000      14.58218000      -0.01853600      -0.01418700      -0.23935600
Pt       4.20900000       4.05011000      14.58218000      -0.00000000      -0.02840700      -0.28264700
Pt       7.01499000       4.05011000      14.58218000       0.01853600      -0.01418700      -0.23935600
Pt      11.22399000       6.48017000      14.58218000      -0.09664200       0.08333600      -0.06679700