24
Lattice="2.805997698 0.0 0.0 5.611995395 9.720261156 0.0 0.0 0.0 29.886262579" Properties=species:S:1:pos:R:3:forces:R:3 energy=-153.79491002 pbc="T T T"
C        1.40300000       2.43007000      18.72826000       0.00000000       0.04745000       0.55017600
C        4.20900000       4.86013000      18.49926000      -0.00000000       0.06949000      -3.09218100
C        1.40300000       0.00000000      18.49926000      -0.00000000       0.06949000      -3.09218100
C        4.20900000       7.29020000      18.72826000       0.00000000       0.04745000       0.55017600
O        4.20900000       7.29020000      19.88626000      -0.00000000      -0.02254500      -0.06053800
O        1.40300000       2.43007000      19.88626000      -0.00000000      -0.02254500      -0.06053800
O        4.20900000       4.86013000      19.65726000      -0.00000000      -0.00702200       1.33153100
O        1.40300000       0.00000000      19.65726000      -0.00000000      -0.00702200       1.33153100
Pt       4.20900000       7.29020000      16.87326000      -0.00000000       0.02770200       0.25883900
Pt       2.80600000       4.86013000      16.87326000       0.00000000      -0.33776100       2.07067700
Pt       1.40300000       2.43007000      16.87326000      -0.00000000       0.02770200       0.25883900
Pt       0.00000000       0.00000000      16.87326000       0.00000000      -0.33776100       2.07067700
Pt       0.00000000       0.00000000      10.00000000      -0.00000000      -0.02415600      -0.19057800
Pt       4.20900000       4.05011000      14.58218000       0.00000000       0.04142100      -0.32914300
Pt       2.80600000       1.62004000      14.58218000      -0.00000000       0.21027600      -0.51553000
Pt       5.61200000       8.10022000      12.29109000      -0.00000000      -0.04480800       0.06341000
Pt       4.20900000       5.67015000      12.29109000      -0.00000000       0.03886600       0.14022500
Pt       2.80600000       3.24009000      12.29109000      -0.00000000      -0.04480800       0.06341000
Pt       1.40300000       0.81002000      12.29109000      -0.00000000       0.03886600       0.14022500
Pt       4.20900000       7.29020000      10.00000000      -0.00000000       0.00108800      -0.22688900
Pt       2.80600000       4.86013000      10.00000000      -0.00000000      -0.02415600      -0.19057800
Pt       1.40300000       2.43007000      10.00000000      -0.00000000       0.00108800      -0.22688900
Pt       5.61200000       6.48017000      14.58218000      -0.00000000       0.21027600      -0.51553000
Pt       7.01499000       8.91024000      14.58218000       0.00000000       0.04142100      -0.32914300
24
Lattice="2.805997698 0.0 0.0 5.611995395 9.720261156 0.0 0.0 0.0 29.886262579" Properties=species:S:1:pos:R:3:forces:R:3 energy=-152.30637748 pbc="T T T"
C        2.80600000       4.86013000      18.72826000      -0.00000000       0.39590700       0.33887300
C        1.40300000       0.81002000      18.27026000       0.00000000      -3.57331500      -2.97655300
C        4.20900000       7.29020000      18.72826000      -0.00000000       0.60222100       0.16263500
C        2.80600000       2.43007000      18.49926000       0.00000000       2.89696700      -1.89266900
O        2.80600000       2.43007000      19.65726000      -0.00000000       1.92003600       0.70301900
O        2.80600000       4.86013000      19.88626000       0.00000000       0.49956600       0.02817900
O        1.40300000       0.81002000      19.42826000       0.00000000      -3.54091200       2.98167100
O        4.20900000       7.29020000      19.88626000      -0.00000000       0.23810200       0.00301100
Pt       4.20900000       7.29020000      16.87326000      -0.00000000       0.23745700       0.46664300
Pt       2.80600000       4.86013000      16.87326000      -0.00000000       0.31014000       0.28244500
Pt       1.40300000       2.43007000      16.87326000      -0.00000000       0.24657400       1.67487200
Pt       0.00000000       0.00000000      16.87326000      -0.00000000      -0.35522500       0.33966200
Pt       0.00000000       0.00000000      10.00000000      -0.00000000      -0.00283400      -0.18634400
Pt       4.20900000       4.05011000      14.58218000      -0.00000000       0.05218900      -0.32804000
Pt       2.80600000       1.62004000      14.58218000      -0.00000000       0.23977200      -0.76757000
Pt       5.61200000       8.10022000      12.29109000      -0.00000000      -0.03153200       0.04365400
Pt       4.20900000       5.67015000      12.29109000      -0.00000000       0.00974700       0.11992000
Pt       2.80600000       3.24009000      12.29109000      -0.00000000      -0.03311300       0.04205800
Pt       1.40300000       0.81002000      12.29109000      -0.00000000       0.00987000       0.12887400
Pt       4.20900000       7.29020000      10.00000000      -0.00000000      -0.03814700      -0.21137600
Pt       2.80600000       4.86013000      10.00000000      -0.00000000      -0.02135100      -0.18319200
Pt       1.40300000       2.43007000      10.00000000      -0.00000000       0.00627200      -0.23968900
Pt       5.61200000       6.48017000      14.58218000      -0.00000000       0.01348200      -0.31971800
Pt       7.01499000       8.91024000      14.58218000      -0.00000000      -0.08187300      -0.21036600
24
Lattice="2.805997698 0.0 0.0 5.611995395 9.720261156 0.0 0.0 0.0 29.657262579" Properties=species:S:1:pos:R:3:forces:R:3 energy=-152.10335771 pbc="T T T"
C        2.80600000       2.43007000      18.49926000       0.00000000       3.24648800      -1.43290800
C        4.20900000       4.86013000      18.49926000      -0.00000000       0.84899300      -2.33155900
C        1.40300000       0.81002000      18.27026000       0.00000000      -2.63543900      -2.46083000
C        5.61200000       8.10022000      18.27026000       0.00000000      -0.93806600      -2.47096300
O        5.61200000       8.10022000      19.42826000       0.00000000      -0.19380400       2.57775400
O        2.80600000       2.43007000      19.65726000      -0.00000000       2.54349200       0.52267800
O        4.20900000       4.86013000      19.65726000      -0.00000000       0.18463100       0.96770300
O        1.40300000       0.81002000      19.42826000      -0.00000000      -3.38176900       2.54811500
Pt       4.20900000       7.29020000      16.87326000       0.00000000       0.09111500       0.54840000
Pt       2.80600000       4.86013000      16.87326000       0.00000000       0.31492300       2.08143300
Pt       1.40300000       2.43007000      16.87326000       0.00000000       0.19549400       1.66759700
Pt       0.00000000       0.00000000      16.87326000       0.00000000      -0.58216000       0.32344600
Pt       0.00000000       0.00000000      10.00000000       0.00000000      -0.04053200      -0.17924900
Pt       4.20900000       4.05011000      14.58218000       0.00000000       0.04244500      -0.39256400
Pt       2.80600000       1.62004000      14.58218000       0.00000000       0.13641600      -0.57411300
Pt       5.61200000       8.10022000      12.29109000       0.00000000      -0.04275700       0.03936100
Pt       4.20900000       5.67015000      12.29109000       0.00000000      -0.01474200       0.08623300
Pt       2.80600000       3.24009000      12.29109000       0.00000000       0.03321800       0.05861600
Pt       1.40300000       0.81002000      12.29109000       0.00000000      -0.03238100       0.12786200
Pt       4.20900000       7.29020000      10.00000000       0.00000000      -0.01990300      -0.20304700
Pt       2.80600000       4.86013000      10.00000000       0.00000000       0.01847400      -0.16901500
Pt       1.40300000       2.43007000      10.00000000       0.00000000      -0.02566500      -0.13266300
Pt       5.61200000       6.48017000      14.58218000       0.00000000       0.08913100      -0.48255700
Pt       7.01499000       8.91024000      14.58218000      -0.00000000       0.16239900      -0.71973300
24
Lattice="2.805997698 0.0 0.0 5.611995395 9.720261156 0.0 0.0 0.0 29.428262579" Properties=species:S:1:pos:R:3:forces:R:3 energy=-154.5512829 pbc="T T T"
C        5.61200000       8.10022000      18.27026000      -0.00000000      -0.00125600      -2.00886600
C        1.40300000       0.81002000      18.27026000       0.00000000      -0.00125600      -2.00886600
C        2.80600000       3.24009000      18.27026000       0.00000000      -0.00125600      -2.00886600
C        4.20900000       5.67015000      18.27026000      -0.00000000      -0.00125600      -2.00886600
O        4.20900000       5.67015000      19.42826000      -0.00000000       0.00222800       2.33799500
O        5.61200000       8.10022000      19.42826000      -0.00000000       0.00222800       2.33799500
O        1.40300000       0.81002000      19.42826000      -0.00000000       0.00222800       2.33799500
O        2.80600000       3.24009000      19.42826000      -0.00000000       0.00222800       2.33799500
Pt       4.20900000       7.29020000      16.87326000      -0.00000000      -0.00489000       0.46048700
Pt       2.80600000       4.86013000      16.87326000      -0.00000000      -0.00489000       0.46048700
Pt       1.40300000       2.43007000      16.87326000      -0.00000000      -0.00489000       0.46048700
Pt       0.00000000       0.00000000      16.87326000      -0.00000000      -0.00489000       0.46048700
Pt       0.00000000       0.00000000      10.00000000      -0.00000000      -0.02336700      -0.20223600
Pt       4.20900000       4.05011000      14.58218000       0.00000000       0.01581800      -0.66417300
Pt       2.80600000       1.62004000      14.58218000       0.00000000       0.01581800      -0.66417300
Pt       5.61200000       8.10022000      12.29109000       0.00000000       0.01146700       0.07679400
Pt       4.20900000       5.67015000      12.29109000       0.00000000       0.01146700       0.07679400
Pt       2.80600000       3.24009000      12.29109000       0.00000000       0.01146700       0.07679400
Pt       1.40300000       0.81002000      12.29109000       0.00000000       0.01146700       0.07679400
Pt       4.20900000       7.29020000      10.00000000      -0.00000000      -0.02336700      -0.20223600
Pt       2.80600000       4.86013000      10.00000000      -0.00000000      -0.02336700      -0.20223600
Pt       1.40300000       2.43007000      10.00000000      -0.00000000      -0.02336700      -0.20223600
Pt       5.61200000       6.48017000      14.58218000       0.00000000       0.01581800      -0.66417300
Pt       7.01499000       8.91024000      14.58218000       0.00000000       0.01581800      -0.66417300
24
Lattice="2.805997698 0.0 0.0 5.611995395 9.720261156 0.0 0.0 0.0 29.657262579" Properties=species:S:1:pos:R:3:forces:R:3 energy=-149.84295809 pbc="T T T"
C        1.40300000       0.81002000      18.27026000      -0.00000000      -3.51568300      -2.76794100
C        5.61200000       7.29020000      18.49926000       0.00000000       3.99231800      -1.59394500
C        2.80600000       2.43007000      18.49926000       0.00000000       3.99231800      -1.59394500
C        4.20900000       5.67015000      18.27026000      -0.00000000      -3.51568300      -2.76794100
O        4.20900000       5.67015000      19.42826000       0.00000000      -3.56726300       2.75090200
O        1.40300000       0.81002000      19.42826000       0.00000000      -3.56726300       2.75090200
O        5.61200000       7.29020000      19.65726000      -0.00000000       2.68574100       0.53562900
O        2.80600000       2.43007000      19.65726000      -0.00000000       2.68574100       0.53562900
Pt       4.20900000       7.29020000      16.87326000       0.00000000       0.56021700       1.86687200
Pt       2.80600000       4.86013000      16.87326000      -0.00000000      -0.22380800       0.37592700
Pt       1.40300000       2.43007000      16.87326000       0.00000000       0.56021700       1.86687200
Pt       0.00000000       0.00000000      16.87326000      -0.00000000      -0.22380800       0.37592700
Pt       0.00000000       0.00000000      10.00000000      -0.00000000      -0.02406500      -0.13108200
Pt       4.20900000       4.05011000      14.58218000      -0.00000000      -0.09727900      -0.23818400
Pt       2.80600000       1.62004000      14.58218000      -0.00000000       0.25551600      -0.78737400
Pt       5.61200000       8.10022000      12.29109000      -0.00000000      -0.07643900       0.03973800
Pt       4.20900000       5.67015000      12.29109000      -0.00000000       0.03518700       0.18189900
Pt       2.80600000       3.24009000      12.29109000      -0.00000000      -0.07643900       0.03973800
Pt       1.40300000       0.81002000      12.29109000      -0.00000000       0.03518700       0.18189900
Pt       4.20900000       7.29020000      10.00000000      -0.00000000      -0.02444100      -0.23244100
Pt       2.80600000       4.86013000      10.00000000      -0.00000000      -0.02406500      -0.13108200
Pt       1.40300000       2.43007000      10.00000000      -0.00000000      -0.02444100      -0.23244100
Pt       5.61200000       6.48017000      14.58218000      -0.00000000       0.25551600      -0.78737400
Pt       7.01499000       8.91024000      14.58218000      -0.00000000      -0.09727900      -0.23818400
24
Lattice="2.805997698 0.0 0.0 5.611995395 9.720261156 0.0 0.0 0.0 29.886262579" Properties=species:S:1:pos:R:3:forces:R:3 energy=-152.03834682 pbc="T T T"
C        2.80600000       3.24009000      18.27026000      -0.00000000      -3.58700900      -2.94165000
C        5.61200000       7.29020000      18.49926000      -0.00000000      -0.20073300      -2.66335500
C        4.20900000       4.86013000      18.49926000      -0.00000000       3.20043300      -1.56050700
C        0.00000000       0.00000000      18.72826000       0.00000000       1.07043900       0.52264600
O        0.00000000       0.00000000      19.88626000      -0.00000000       0.68683700      -0.15295300
O        2.80600000       3.24009000      19.42826000      -0.00000000      -3.54661400       2.92582800
O        5.61200000       7.29020000      19.65726000       0.00000000      -0.60200000       1.13225100
O        4.20900000       4.86013000      19.65726000      -0.00000000       2.53491700       0.57113100
Pt       4.20900000       7.29020000      16.87326000      -0.00000000      -0.08883600       1.99711300
Pt       2.80600000       4.86013000      16.87326000      -0.00000000       0.16627600       1.63606700
Pt       1.40300000       2.43007000      16.87326000       0.00000000      -0.37330400       0.29969200
Pt       0.00000000       0.00000000      16.87326000      -0.00000000       0.42803300       0.40459900
Pt       0.00000000       0.00000000      10.00000000      -0.00000000      -0.02319000      -0.23671000
Pt       4.20900000       4.05011000      14.58218000       0.00000000       0.23444100      -0.74078200
Pt       2.80600000       1.62004000      14.58218000      -0.00000000      -0.08766600      -0.17901100
Pt       5.61200000       8.10022000      12.29109000      -0.00000000       0.04156000       0.13657600
Pt       4.20900000       5.67015000      12.29109000      -0.00000000      -0.04452600       0.06357900
Pt       2.80600000       3.24009000      12.29109000      -0.00000000       0.02478100       0.15262900
Pt       1.40300000       0.81002000      12.29109000      -0.00000000      -0.06331000       0.01893600
Pt       4.20900000       7.29020000      10.00000000      -0.00000000      -0.01562100      -0.16797500
Pt       2.80600000       4.86013000      10.00000000      -0.00000000       0.01739300      -0.22865300
Pt       1.40300000       2.43007000      10.00000000      -0.00000000      -0.03920600      -0.16259300
Pt       5.61200000       6.48017000      14.58218000      -0.00000000       0.06437300      -0.31835200
Pt       7.01499000       8.91024000      14.58218000       0.00000000       0.20253300      -0.50850500
24
Lattice="2.805997698 0.0 0.0 5.611995395 9.720261156 0.0 0.0 0.0 29.886262579" Properties=species:S:1:pos:R:3:forces:R:3 energy=-154.55709057 pbc="T T T"
C        4.20900000       7.29020000      18.72826000       0.00000000       0.47147300       0.18057500
C        0.00000000       0.00000000      18.72826000       0.00000000       0.01537900      -0.09734100
C        1.40300000       2.43007000      18.72826000      -0.00000000      -0.41398600       0.17526900
C        4.20900000       4.86013000      18.49926000       0.00000000       0.06064900      -3.18407300
O        4.20900000       4.86013000      19.65726000       0.00000000      -0.00405000       1.40611700
O        4.20900000       7.29020000      19.88626000      -0.00000000       0.44603400       0.10527500
O        0.00000000       0.00000000      19.88626000       0.00000000      -0.00593500       0.22449100
O        1.40300000       2.43007000      19.88626000       0.00000000      -0.47209900       0.11513600
Pt       4.20900000       7.29020000      16.87326000       0.00000000       0.17053200       0.32469900
Pt       2.80600000       4.86013000      16.87326000       0.00000000      -0.31526300       2.09899900
Pt       1.40300000       2.43007000      16.87326000       0.00000000      -0.17924400       0.31812900
Pt       0.00000000       0.00000000      16.87326000       0.00000000      -0.03991400       0.35598200
Pt       0.00000000       0.00000000      10.00000000       0.00000000      -0.03666100      -0.19959300
Pt       4.20900000       4.05011000      14.58218000       0.00000000       0.03989000      -0.35877800
Pt       2.80600000       1.62004000      14.58218000       0.00000000       0.03459800      -0.32740200
Pt       5.61200000       8.10022000      12.29109000       0.00000000      -0.02273600       0.05740000
Pt       4.20900000       5.67015000      12.29109000       0.00000000       0.02426000       0.10074400
Pt       2.80600000       3.24009000      12.29109000       0.00000000      -0.02016700       0.08382900
Pt       1.40300000       0.81002000      12.29109000       0.00000000       0.01314800       0.11914500
Pt       4.20900000       7.29020000      10.00000000       0.00000000      -0.00482300      -0.23913600
Pt       2.80600000       4.86013000      10.00000000       0.00000000       0.00594200      -0.21091600
Pt       1.40300000       2.43007000      10.00000000       0.00000000       0.00287200      -0.20485000
Pt       5.61200000       6.48017000      14.58218000      -0.00000000       0.19920800      -0.53095300
Pt       7.01499000       8.91024000      14.58218000       0.00000000       0.03089200      -0.31274700
24
Lattice="2.805997698 0.0 0.0 5.611995395 9.720261156 0.0 0.0 0.0 29.886262579" Properties=species:S:1:pos:R:3:forces:R:3 energy=-154.30840966 pbc="T T T"
C        5.61200000       7.29020000      18.49926000       0.00000000       0.36187900      -2.85905000
C        1.40300000       0.00000000      18.49926000       0.00000000      -0.21459300      -2.83772200
C        2.80600000       4.86013000      18.72826000      -0.00000000      -0.40360000       0.24122300
C        1.40300000       2.43007000      18.72826000       0.00000000       0.47721000       0.24945200
O        1.40300000       2.43007000      19.88626000       0.00000000       0.43831100       0.05985500
O        5.61200000       7.29020000      19.65726000      -0.00000000       0.61704400       1.26637600
O        1.40300000       0.00000000      19.65726000       0.00000000      -0.64087300       1.24526700
O        2.80600000       4.86013000      19.88626000      -0.00000000      -0.46965600       0.06787600
Pt       4.20900000       7.29020000      16.87326000       0.00000000      -0.40518300       2.04437800
Pt       2.80600000       4.86013000      16.87326000       0.00000000      -0.19919400       0.29234400
Pt       1.40300000       2.43007000      16.87326000       0.00000000       0.15530100       0.30277700
Pt       0.00000000       0.00000000      16.87326000       0.00000000      -0.18241600       2.03365600
Pt       0.00000000       0.00000000      10.00000000      -0.00000000       0.01430000      -0.22527500
Pt       4.20900000       4.05011000      14.58218000      -0.00000000       0.03983100      -0.30137800
Pt       2.80600000       1.62004000      14.58218000       0.00000000       0.21930600      -0.50710100
Pt       5.61200000       8.10022000      12.29109000       0.00000000       0.01392400       0.11667700
Pt       4.20900000       5.67015000      12.29109000       0.00000000      -0.00650200       0.11121300
Pt       2.80600000       3.24009000      12.29109000       0.00000000      -0.00538600       0.08705000
Pt       1.40300000       0.81002000      12.29109000       0.00000000      -0.00518200       0.07761300
Pt       4.20900000       7.29020000      10.00000000       0.00000000       0.00611200      -0.19432600
Pt       2.80600000       4.86013000      10.00000000      -0.00000000      -0.03170000      -0.18130900
Pt       1.40300000       2.43007000      10.00000000       0.00000000      -0.03931100      -0.21750700
Pt       5.61200000       6.48017000      14.58218000       0.00000000       0.05010500      -0.33624900
Pt       7.01499000       8.91024000      14.58218000      -0.00000000       0.21027600      -0.53584100
24
Lattice="2.805997698 0.0 0.0 5.611995395 9.720261156 0.0 0.0 0.0 29.886262579" Properties=species:S:1:pos:R:3:forces:R:3 energy=-154.04074801 pbc="T T T"
C        4.20900000       4.86013000      18.49926000      -0.00000000       0.38075700      -2.79129200
C        1.40300000       2.43007000      18.72826000      -0.00000000       0.05836400       0.60630100
C        1.40300000       0.00000000      18.49926000      -0.00000000      -0.21773800      -2.75743800
C        5.61200000       7.29020000      18.49926000      -0.00000000       0.08721500      -2.49556700
O        5.61200000       7.29020000      19.65726000      -0.00000000      -0.02005500       1.10121900
O        4.20900000       4.86013000      19.65726000      -0.00000000       0.62390900       1.21393400
O        1.40300000       2.43007000      19.88626000      -0.00000000      -0.02526600      -0.09748200
O        1.40300000       0.00000000      19.65726000       0.00000000      -0.65218100       1.19132300
Pt       4.20900000       7.29020000      16.87326000       0.00000000      -0.26902300       1.96120700
Pt       2.80600000       4.86013000      16.87326000       0.00000000      -0.44711700       1.99844100
Pt       1.40300000       2.43007000      16.87326000      -0.00000000       0.00285600       0.23752400
Pt       0.00000000       0.00000000      16.87326000      -0.00000000      -0.19837600       1.98485400
Pt       0.00000000       0.00000000      10.00000000      -0.00000000      -0.01909300      -0.20129000
Pt       4.20900000       4.05011000      14.58218000      -0.00000000       0.06459100      -0.29832000
Pt       2.80600000       1.62004000      14.58218000      -0.00000000       0.23297300      -0.48762500
Pt       5.61200000       8.10022000      12.29109000      -0.00000000      -0.01999600       0.09495100
Pt       4.20900000       5.67015000      12.29109000      -0.00000000       0.02070400       0.14472300
Pt       2.80600000       3.24009000      12.29109000       0.00000000      -0.03613400       0.08586900
Pt       1.40300000       0.81002000      12.29109000      -0.00000000       0.01153300       0.10547500
Pt       4.20900000       7.29020000      10.00000000      -0.00000000       0.01339300      -0.21504200
Pt       2.80600000       4.86013000      10.00000000       0.00000000      -0.02245200      -0.17112500
Pt       1.40300000       2.43007000      10.00000000      -0.00000000      -0.03085400      -0.20357600
Pt       5.61200000       6.48017000      14.58218000       0.00000000       0.22455200      -0.50470500
Pt       7.01499000       8.91024000      14.58218000      -0.00000000       0.23743800      -0.50236100
24
Lattice="2.805997698 0.0 0.0 5.611995395 9.720261156 0.0 0.0 0.0 29.886262579" Properties=species:S:1:pos:R:3:forces:R:3 energy=-152.11112053 pbc="T T T"
C        5.61200000       8.10022000      18.27026000       0.00000000      -2.62857500      -2.48574100
C        1.40300000       2.43007000      18.72826000      -0.00000000       0.98545200       0.61773100
C        1.40300000       0.00000000      18.49926000       0.00000000       2.91173300      -1.76779300
C        4.20900000       5.67015000      18.27026000      -0.00000000      -0.98157200      -2.60083200
O        4.20900000       5.67015000      19.42826000      -0.00000000      -0.15353100       2.68497600
O        5.61200000       8.10022000      19.42826000      -0.00000000      -3.36867000       2.60452100
O        1.40300000       2.43007000      19.88626000      -0.00000000       0.74178700      -0.18696400
O        1.40300000       0.00000000      19.65726000      -0.00000000       1.93943900       0.65529300
Pt       4.20900000       7.29020000      16.87326000       0.00000000      -0.54282900       0.32599700
Pt       2.80600000       4.86013000      16.87326000      -0.00000000       0.02814300       0.49443700
Pt       1.40300000       2.43007000      16.87326000       0.00000000       0.67994600       0.39960400
Pt       0.00000000       0.00000000      16.87326000      -0.00000000       0.27636100       1.65721800
Pt       0.00000000       0.00000000      10.00000000      -0.00000000      -0.03623700      -0.16805400
Pt       4.20900000       4.05011000      14.58218000      -0.00000000      -0.09892800      -0.27385700
Pt       2.80600000       1.62004000      14.58218000      -0.00000000       0.02409900      -0.34109600
Pt       5.61200000       8.10022000      12.29109000      -0.00000000      -0.05372400       0.11671700
Pt       4.20900000       5.67015000      12.29109000      -0.00000000      -0.02442300       0.06520900
Pt       2.80600000       3.24009000      12.29109000      -0.00000000      -0.01941900       0.06738900
Pt       1.40300000       0.81002000      12.29109000      -0.00000000       0.04678600       0.04425000
Pt       4.20900000       7.29020000      10.00000000      -0.00000000      -0.00239900      -0.22543600
Pt       2.80600000       4.86013000      10.00000000      -0.00000000      -0.03207100      -0.20007600
Pt       1.40300000       2.43007000      10.00000000      -0.00000000       0.00540700      -0.19293400
Pt       5.61200000       6.48017000      14.58218000      -0.00000000       0.16226100      -0.72116500
Pt       7.01499000       8.91024000      14.58218000      -0.00000000       0.14096100      -0.56939300
24
Lattice="2.805997698 0.0 0.0 5.611995395 9.720261156 0.0 0.0 0.0 29.428262579" Properties=species:S:1:pos:R:3:forces:R:3 energy=-154.2691064 pbc="T T T"
C        4.20900000       4.05011000      18.27026000       0.00000000      -0.01480200      -1.89066000
C        2.80600000       1.62004000      18.27026000       0.00000000      -0.01480200      -1.89066000
C        5.61200000       6.48017000      18.27026000       0.00000000      -0.01480200      -1.89066000
C        7.01499000       8.91024000      18.27026000       0.00000000      -0.01480200      -1.89066000
O        7.01499000       8.91024000      19.42826000       0.00000000       0.00743200       2.30023300
O        4.20900000       4.05011000      19.42826000      -0.00000000       0.00743200       2.30023300
O        2.80600000       1.62004000      19.42826000       0.00000000       0.00743200       2.30023300
O        5.61200000       6.48017000      19.42826000       0.00000000       0.00743200       2.30023300
Pt       4.20900000       7.29020000      16.87326000      -0.00000000       0.01209100       0.49954500
Pt       2.80600000       4.86013000      16.87326000      -0.00000000       0.01209100       0.49954500
Pt       1.40300000       2.43007000      16.87326000      -0.00000000       0.01209100       0.49954500
Pt       0.00000000       0.00000000      16.87326000      -0.00000000       0.01209100       0.49954500
Pt       0.00000000       0.00000000      10.00000000      -0.00000000      -0.00902800      -0.20155900
Pt       4.20900000       4.05011000      14.58218000      -0.00000000       0.00704200      -0.77993100
Pt       2.80600000       1.62004000      14.58218000      -0.00000000       0.00704200      -0.77993100
Pt       5.61200000       8.10022000      12.29109000      -0.00000000      -0.00273500       0.07237200
Pt       4.20900000       5.67015000      12.29109000      -0.00000000      -0.00273500       0.07237200
Pt       2.80600000       3.24009000      12.29109000      -0.00000000      -0.00273500       0.07237200
Pt       1.40300000       0.81002000      12.29109000      -0.00000000      -0.00273500       0.07237200
Pt       4.20900000       7.29020000      10.00000000      -0.00000000      -0.00902800      -0.20155900
Pt       2.80600000       4.86013000      10.00000000      -0.00000000      -0.00902800      -0.20155900
Pt       1.40300000       2.43007000      10.00000000      -0.00000000      -0.00902800      -0.20155900
Pt       5.61200000       6.48017000      14.58218000      -0.00000000       0.00704200      -0.77993100
Pt       7.01499000       8.91024000      14.58218000      -0.00000000       0.00704200      -0.77993100
24
Lattice="2.805997698 0.0 0.0 5.611995395 9.720261156 0.0 0.0 0.0 29.657262579" Properties=species:S:1:pos:R:3:forces:R:3 energy=-152.18877263 pbc="T T T"
C        1.40300000       0.00000000      18.49926000      -0.00000000       3.99430300      -1.51420400
C        5.61200000       8.10022000      18.27026000      -0.00000000      -2.61450900      -2.44709600
C        4.20900000       5.67015000      18.27026000      -0.00000000       0.00124900      -2.02308500