48
Lattice="5.611995395 0.0 0.0 5.611995395 9.720261156 0.0 0.0 0.0 29.886262579" Properties=species:S:1:pos:R:3:forces:R:3 energy=-308.66105912 pbc="T T T"
C        7.01499000       7.29020000      18.72826000       0.00000000       0.46707400       0.21104900
C        2.80600000       0.00000000      18.72826000       0.00000000      -0.42610600       0.21244300
C        4.20900000       4.86013000      18.49926000      -0.00000000      -0.21845700      -2.89282100
C        5.61200000       2.43007000      18.49926000       0.00000000       0.38004700      -2.89567800
C        4.20900000       7.29020000      18.72826000       0.00000000       0.46707400       0.21104900
C        2.80600000       2.43007000      18.49926000       0.00000000       0.38004700      -2.89567800
C        0.00000000       0.00000000      18.72826000       0.00000000      -0.42610600       0.21244300
C        7.01499000       4.86013000      18.49926000      -0.00000000      -0.21845700      -2.89282100
O        2.80600000       0.00000000      19.88626000      -0.00000000      -0.46200100       0.05847000
O        7.01499000       7.29020000      19.88626000      -0.00000000       0.44167000       0.05732800
O        7.01499000       4.86013000      19.65726000      -0.00000000      -0.63613200       1.26402700
O        2.80600000       2.43007000      19.65726000      -0.00000000       0.60807500       1.27384600
O        5.61200000       2.43007000      19.65726000      -0.00000000       0.60807500       1.27384600
O        4.20900000       4.86013000      19.65726000      -0.00000000      -0.63613200       1.26402700
O        0.00000000       0.00000000      19.88626000      -0.00000000      -0.46200100       0.05847000
O        4.20900000       7.29020000      19.88626000      -0.00000000       0.44167000       0.05732800
Pt       0.00000000       0.00000000      16.87326000      -0.00000000      -0.16173300       0.34994100
Pt       7.01499000       7.29020000      16.87326000      -0.00000000       0.17662300       0.37088100
Pt       4.20900000       7.29020000      16.87326000      -0.00000000       0.17662300       0.37088100
Pt       5.61200000       4.86013000      16.87326000      -0.00000000      -0.14653300       2.11747500
Pt       2.80600000       4.86013000      16.87326000      -0.00000000      -0.14653300       2.11747500
Pt       4.20900000       2.43007000      16.87326000      -0.00000000      -0.40378500       2.09206600
Pt       1.40300000       2.43007000      16.87326000      -0.00000000      -0.40378500       2.09206600
Pt       2.80600000       0.00000000      16.87326000      -0.00000000      -0.16173300       0.34994100
Pt       0.00000000       0.00000000      10.00000000      -0.00000000      -0.02652800      -0.20776700
Pt       5.61200000       6.48017000      14.58218000      -0.00000000       0.18269500      -0.55203500
Pt       2.80600000       0.00000000      10.00000000      -0.00000000      -0.02652800      -0.20776700
Pt       1.40300000       2.43007000      10.00000000      -0.00000000       0.01969300      -0.21261400
Pt       4.20900000       2.43007000      10.00000000      -0.00000000       0.01969300      -0.21261400
Pt       2.80600000       4.86013000      10.00000000      -0.00000000       0.01745600      -0.24205000
Pt       5.61200000       4.86013000      10.00000000      -0.00000000       0.01745600      -0.24205000
Pt       4.20900000       7.29020000      10.00000000      -0.00000000      -0.03584500      -0.23851100
Pt       7.01499000       7.29020000      10.00000000      -0.00000000      -0.03584500      -0.23851100
Pt       1.40300000       0.81002000      12.29109000      -0.00000000      -0.01870300       0.12081900
Pt       4.20900000       0.81002000      12.29109000      -0.00000000      -0.01870300       0.12081900
Pt       9.82099000       8.91024000      14.58218000      -0.00000000      -0.00241200      -0.33306500
Pt       2.80600000       3.24009000      12.29109000      -0.00000000      -0.00710300       0.10997100
Pt       4.20900000       5.67015000      12.29109000      -0.00000000      -0.00547600       0.11160900
Pt       7.01499000       5.67015000      12.29109000      -0.00000000      -0.00547600       0.11160900
Pt       5.61200000       8.10022000      12.29109000      -0.00000000       0.00767800       0.12485600
Pt       8.41799000       8.10022000      12.29109000      -0.00000000       0.00767800       0.12485600
Pt       5.61200000       1.62004000      14.58218000      -0.00000000       0.03922000      -0.33822500
Pt       2.80600000       1.62004000      14.58218000      -0.00000000       0.03922000      -0.33822500
Pt       7.01499000       4.05011000      14.58218000      -0.00000000       0.21058300      -0.56201300
Pt       4.20900000       4.05011000      14.58218000      -0.00000000       0.21058300      -0.56201300
Pt       8.41799000       6.48017000      14.58218000      -0.00000000       0.18269500      -0.55203500
Pt       5.61200000       3.24009000      12.29109000      -0.00000000      -0.00710300       0.10997100
Pt       7.01499000       8.91024000      14.58218000      -0.00000000      -0.00241200      -0.33306500
48
Lattice="5.611995395 0.0 0.0 5.611995395 9.720261156 0.0 0.0 0.0 29.657262579" Properties=species:S:1:pos:R:3:forces:R:3 energy=-306.9093614 pbc="T T T"
C        4.20900000       0.81002000      18.27026000       0.39024700      -0.44278700      -2.20229600
C        4.20900000       5.67015000      18.27026000      -0.86652600      -1.32979400      -2.23103300
C        8.41799000       8.10022000      18.27026000      -0.00000000       0.19475200      -2.35311500
C        1.40300000       0.81002000      18.27026000      -0.39024700      -0.44278700      -2.20229600
C        2.80600000       3.24009000      18.27026000       0.00000000      -0.03390000      -1.95267800
C        5.61200000       7.29020000      18.49926000       0.00000000       3.73771300      -1.12213200
C        5.61200000       3.24009000      18.27026000       0.00000000      -0.00386800      -2.05078900
C        7.01499000       5.67015000      18.27026000       0.86652600      -1.32979400      -2.23103300
O        4.20900000       5.67015000      19.42826000      -1.54826900      -1.69515100       2.41805800
O        4.20900000       0.81002000      19.42826000       0.03863000      -0.09510900       2.42826500
O        7.01499000       5.67015000      19.42826000       1.54826900      -1.69515100       2.41805800
O        5.61200000       7.29020000      19.65726000       0.00000000       2.78924500       0.43714700
O        1.40300000       0.81002000      19.42826000      -0.03863000      -0.09510900       2.42826500
O        8.41799000       8.10022000      19.42826000       0.00000000      -0.01001600       2.43174600
O        5.61200000       3.24009000      19.42826000       0.00000000       0.00271500       2.32596400
O        2.80600000       3.24009000      19.42826000       0.00000000      -0.02108600       2.28647600
Pt       0.00000000       0.00000000      16.87326000       0.00000000       0.30624800       0.44962800
Pt       7.01499000       7.29020000      16.87326000      -0.46877400       0.36240300       1.20293300
Pt       4.20900000       7.29020000      16.87326000       0.46877400       0.36240300       1.20293300
Pt       5.61200000       4.86013000      16.87326000      -0.00000000      -0.52006400       0.20302900
Pt       2.80600000       4.86013000      16.87326000       0.00000000      -0.02406700       0.59133800
Pt       4.20900000       2.43007000      16.87326000       0.01674200      -0.04152000       0.47587100
Pt       1.40300000       2.43007000      16.87326000      -0.01674200      -0.04152000       0.47587100
Pt       2.80600000       0.00000000      16.87326000       0.00000000      -0.00437100       0.60310200
Pt       0.00000000       0.00000000      10.00000000       0.00000000       0.00799400      -0.17530600
Pt       5.61200000       6.48017000      14.58218000       0.00000000      -0.02989600      -0.75205200
Pt       2.80600000       0.00000000      10.00000000       0.00000000       0.00701000      -0.19087700
Pt       1.40300000       2.43007000      10.00000000       0.01469200      -0.00719900      -0.21298100
Pt       4.20900000       2.43007000      10.00000000      -0.01469200      -0.00719900      -0.21298100
Pt       2.80600000       4.86013000      10.00000000       0.00000000      -0.00564300      -0.17333500
Pt       5.61200000       4.86013000      10.00000000       0.00000000      -0.02059300      -0.14743700
Pt       4.20900000       7.29020000      10.00000000       0.00120900      -0.00078800      -0.19113700
Pt       7.01499000       7.29020000      10.00000000      -0.00120900      -0.00078800      -0.19113700
Pt       1.40300000       0.81002000      12.29109000       0.01642800      -0.01312700       0.08746200
Pt       4.20900000       0.81002000      12.29109000      -0.01642800      -0.01312700       0.08746200
Pt       9.82099000       8.91024000      14.58218000       0.01128900      -0.05044600      -0.49860900
Pt       2.80600000       3.24009000      12.29109000       0.00000000       0.00153100       0.05633500
Pt       4.20900000       5.67015000      12.29109000      -0.02433200       0.03609200       0.09984000
Pt       7.01499000       5.67015000      12.29109000       0.02433200       0.03609200       0.09984000
Pt       5.61200000       8.10022000      12.29109000       0.00000000      -0.03411500       0.06482700
Pt       8.41799000       8.10022000      12.29109000       0.00000000      -0.00232400       0.04038800
Pt       5.61200000       1.62004000      14.58218000      -0.00000000       0.16322900      -0.83517500
Pt       2.80600000       1.62004000      14.58218000       0.00000000      -0.00259600      -0.69157900
Pt       7.01499000       4.05011000      14.58218000      -0.00691700       0.00348900      -0.63219700
Pt       4.20900000       4.05011000      14.58218000       0.00691700       0.00348900      -0.63219700
Pt       8.41799000       6.48017000      14.58218000      -0.00000000       0.11806600      -0.59974200
Pt       5.61200000       3.24009000      12.29109000       0.00000000      -0.06808600       0.06588800
Pt       7.01499000       8.91024000      14.58218000      -0.01128900      -0.05044600      -0.49860900
48
Lattice="5.611995395 0.0 0.0 5.611995395 9.720261156 0.0 0.0 0.0 29.886262579" Properties=species:S:1:pos:R:3:forces:R:3 energy=-306.01426995 pbc="T T T"
C        7.01499000       4.86013000      18.49926000      -1.86528200       1.32637600      -2.24387000
C        4.20900000       4.86013000      18.49926000       1.86528200       1.32637600      -2.24387000
C        4.20900000       7.29020000      18.72826000       0.00260500       0.00605900       0.64927800
C        2.80600000       3.24009000      18.27026000       0.00000000      -3.50996300      -3.02263900
C        5.61200000       2.43007000      18.49926000       0.00000000      -0.12394900      -2.30028800
C        1.40300000       0.00000000      18.49926000       0.22875300       0.76201800      -2.81495100
C        7.01499000       7.29020000      18.72826000      -0.00260500       0.00605900       0.64927800
C        4.20900000       0.00000000      18.49926000      -0.22875300       0.76201800      -2.81495100
O        4.20900000       4.86013000      19.65726000       0.99617500       0.68024300       0.91033500
O        7.01499000       4.86013000      19.65726000      -0.99617500       0.68024300       0.91033500
O        4.20900000       0.00000000      19.65726000      -0.05083200       0.70285400       1.19579900
O        1.40300000       0.00000000      19.65726000       0.05083200       0.70285400       1.19579900
O        2.80600000       3.24009000      19.42826000      -0.00000000      -3.55348900       2.85017800
O        4.20900000       7.29020000      19.88626000      -0.00134900       0.00549200      -0.12982900
O        7.01499000       7.29020000      19.88626000       0.00134900       0.00549200      -0.12982900
O        5.61200000       2.43007000      19.65726000      -0.00000000       0.00709100       1.11837300
Pt       0.00000000       0.00000000      16.87326000      -0.00000000      -0.36294200       1.96169000
Pt       7.01499000       7.29020000      16.87326000      -0.02532700       0.13622500       0.26700900
Pt       4.20900000       7.29020000      16.87326000       0.02532700       0.13622500       0.26700900
Pt       5.61200000       4.86013000      16.87326000      -0.00000000      -0.23220300       2.10508700
Pt       2.80600000       4.86013000      16.87326000       0.00000000       0.23511000       1.58302300
Pt       4.20900000       2.43007000      16.87326000       0.49157200      -0.26506900       1.18131000
Pt       1.40300000       2.43007000      16.87326000      -0.49157200      -0.26506900       1.18131000
Pt       2.80600000       0.00000000      16.87326000      -0.00000000      -0.07817100       2.23995800
Pt       0.00000000       0.00000000      10.00000000      -0.00000000       0.00283900      -0.18991400
Pt       5.61200000       6.48017000      14.58218000       0.00000000       0.18078600      -0.51807300
Pt       2.80600000       0.00000000      10.00000000      -0.00000000      -0.00318600      -0.21060200
Pt       1.40300000       2.43007000      10.00000000      -0.00814400       0.00984700      -0.22976100
Pt       4.20900000       2.43007000      10.00000000       0.00814400       0.00984700      -0.22976100
Pt       2.80600000       4.86013000      10.00000000      -0.00000000      -0.01810200      -0.21729700
Pt       5.61200000       4.86013000      10.00000000      -0.00000000      -0.03078800      -0.21146900
Pt       4.20900000       7.29020000      10.00000000      -0.00819700      -0.02681600      -0.20628600
Pt       7.01499000       7.29020000      10.00000000       0.00819700      -0.02681600      -0.20628600
Pt       1.40300000       0.81002000      12.29109000       0.02159300      -0.03644200       0.09624700
Pt       4.20900000       0.81002000      12.29109000      -0.02159300      -0.03644200       0.09624700
Pt       9.82099000       8.91024000      14.58218000       0.00478700       0.01939300      -0.33747300
Pt       2.80600000       3.24009000      12.29109000      -0.00000000       0.01049300       0.11930400
Pt       4.20900000       5.67015000      12.29109000      -0.00046700       0.00878100       0.10384700
Pt       7.01499000       5.67015000      12.29109000       0.00046700       0.00878100       0.10384700
Pt       5.61200000       8.10022000      12.29109000      -0.00000000      -0.04659100       0.12077900
Pt       8.41799000       8.10022000      12.29109000      -0.00000000      -0.00434000       0.13871800
Pt       5.61200000       1.62004000      14.58218000      -0.00000000       0.10432600      -0.54829300
Pt       2.80600000       1.62004000      14.58218000      -0.00000000       0.23891400      -0.37205000
Pt       7.01499000       4.05011000      14.58218000      -0.03010300       0.25675100      -0.64763400
Pt       4.20900000       4.05011000      14.58218000       0.03010300       0.25675100      -0.64763400
Pt       8.41799000       6.48017000      14.58218000      -0.00000000       0.04584100      -0.35382800
Pt       5.61200000       3.24009000      12.29109000      -0.00000000      -0.03310200       0.11930100
Pt       7.01499000       8.91024000      14.58218000      -0.00478700       0.01939300      -0.33747300
