56
Lattice="8.417993093 0.0 0.0 5.611995395 9.720261156 0.0 0.0 0.0 29.657262579" Properties=species:S:1:pos:R:3:forces:R:3 energy=-342.36612613 pbc="T T T"
C       11.22399000       6.48017000      18.27026000      -0.70487300      -0.14649300      -3.10521900
C        7.01499000       0.00000000      18.49926000      -0.57619900       0.42256300      -2.64807000
C        7.01499000       8.91024000      18.27026000       0.75647600       0.44508800      -2.89311700
C        5.61200000       6.48017000      18.27026000       0.32316900      -0.64267200      -2.91422400
O        7.01499000       0.00000000      19.65726000      -0.00528100      -0.04970300       1.24191100
O       11.22399000       6.48017000      19.42826000      -0.11821400      -0.01038700       2.88327000
O        7.01499000       8.91024000      19.42826000       0.14422600       0.06275500       2.78669500
O        5.61200000       6.48017000      19.42826000       0.03032000      -0.11260300       2.76057000
Pt       7.01499000       4.05011000      14.58218000       0.01486000      -0.04629200      -0.26971500
Pt      11.22399000       6.48017000      14.58218000      -0.01417600       0.02650400      -0.66680100
Pt       5.61200000       6.48017000      14.58218000       0.02015200      -0.01279100      -0.66122800
Pt       8.41799000       6.48017000      14.58218000      -0.05397800       0.05811400      -0.21265300
Pt      12.62699000       8.91024000      14.58218000      -0.00139700      -0.15132200      -0.54143600
Pt       7.01499000       8.91024000      14.58218000      -0.07118100       0.09943700      -0.51033700
Pt       9.82099000       8.91024000      14.58218000       0.08287600       0.10784900      -0.06886000
Pt       0.00000000       0.00000000      16.87326000      -0.39933300       0.32127800       1.51928600
Pt       2.80600000       0.00000000      16.87326000       0.16748100       0.15475500       0.56541200
Pt       5.61200000       0.00000000      16.87326000       0.25661500       0.30098900       1.17537100
Pt       4.20900000       2.43007000      16.87326000      -0.10055800       0.05821300      -0.08727800
Pt       4.20900000       4.05011000      14.58218000       0.00310900      -0.01649600      -0.30279700
Pt       2.80600000       4.86013000      16.87326000      -0.22018400      -0.29832900       0.63791600
Pt       5.61200000       4.86013000      16.87326000       0.23945000      -0.33932200       0.63193500
Pt       8.41799000       4.86013000      16.87326000       0.01175700      -0.41293800      -0.18468100
Pt       4.20900000       7.29020000      16.87326000      -0.20522000      -0.38002000       0.62262600
Pt       7.01499000       7.29020000      16.87326000       0.32844500      -0.22193400       0.80864100
Pt       9.82099000       7.29020000      16.87326000       0.04247500      -0.14227800       0.46353500
Pt       1.40300000       2.43007000      16.87326000       0.11198500       0.42116200      -0.12792200
Pt       7.01499000       2.43007000      16.87326000      -0.00896900       0.53384500      -0.05878800
Pt       0.00000000       0.00000000      10.00000000       0.00378000       0.01199200      -0.05030800
Pt       2.80600000       1.62004000      14.58218000       0.02191000       0.01583400      -0.24117500
Pt       2.80600000       0.00000000      10.00000000      -0.00162300      -0.00866700      -0.03078700
Pt       5.61200000       0.00000000      10.00000000       0.00242500       0.01079800      -0.05488700
Pt       1.40300000       2.43007000      10.00000000      -0.00224500       0.01429900      -0.08726800
Pt       4.20900000       2.43007000      10.00000000       0.00226400       0.04345500      -0.07724000
Pt       7.01499000       2.43007000      10.00000000       0.00684700       0.03355800      -0.10505200
Pt       2.80600000       4.86013000      10.00000000       0.02140200       0.00024100      -0.11713700
Pt       5.61200000       4.86013000      10.00000000      -0.01805600       0.02322300      -0.09810200
Pt       8.41799000       4.86013000      10.00000000      -0.00560800       0.02044900      -0.08323900
Pt       4.20900000       7.29020000      10.00000000       0.01437700      -0.04523300      -0.09327200
Pt       7.01499000       7.29020000      10.00000000      -0.02520700      -0.02200000      -0.10324900
Pt       9.82099000       7.29020000      10.00000000       0.01563700      -0.04318400      -0.09824300
Pt       5.61200000       1.62004000      14.58218000      -0.04338900       0.03163400      -0.34592800
Pt       1.40300000       0.81002000      12.29109000      -0.00004300       0.09515500       0.14701500
Pt       7.01499000       0.81002000      12.29109000       0.01306600       0.10017200       0.17204800
Pt       2.80600000       3.24009000      12.29109000      -0.05329500       0.02774200       0.11205500
Pt       5.61200000       3.24009000      12.29109000       0.04440900      -0.00039200       0.11162000
Pt       8.41799000       3.24009000      12.29109000       0.00166200       0.00488200      -0.04461000
Pt       4.20900000       5.67015000      12.29109000      -0.05838700      -0.04696600       0.15400700
Pt       7.01499000       5.67015000      12.29109000       0.04255100      -0.05463500       0.06714700
Pt       9.82099000       5.67015000      12.29109000      -0.00433200      -0.07783700       0.04666000
Pt       5.61200000       8.10022000      12.29109000      -0.01655900      -0.02453500       0.20920000
Pt       8.41799000       8.10022000      12.29109000       0.03329800      -0.11557400       0.13111300
Pt      11.22399000       8.10022000      12.29109000      -0.02803000      -0.03845600       0.12136400
Pt       8.41799000       1.62004000      14.58218000       0.01440400      -0.01431000      -0.33446900
Pt       4.20900000       0.81002000      12.29109000      -0.01257900       0.04271200       0.18073100
Pt       9.82099000       4.05011000      14.58218000      -0.02251100      -0.01332800      -0.33203200
56
Lattice="8.417993093 0.0 0.0 5.611995395 9.720261156 0.0 0.0 0.0 29.886262579" Properties=species:S:1:pos:R:3:forces:R:3 energy=-342.37386538 pbc="T T T"
C        1.40300000       0.00000000      18.49926000      -0.01096500      -1.17290600      -3.04117600
C        7.01499000       4.05011000      18.27026000       0.04673500      -0.00924400      -3.22962400
C        4.20900000       5.67015000      18.27026000      -0.18921800       0.10224100      -3.16618000
C        1.40300000       2.43007000      18.72826000       0.13210300       1.05990100       0.69567300
O        7.01499000       4.05011000      19.42826000       0.05813400      -0.05093300       3.11331600
O        1.40300000       0.00000000      19.65726000       0.01108600      -0.79946700       1.45765700
O        4.20900000       5.67015000      19.42826000      -0.05227100       0.03636000       3.06211300
O        1.40300000       2.43007000      19.88626000      -0.00767400       0.71199800      -0.34604800
Pt       7.01499000       4.05011000      14.58218000      -0.10682000       0.07599800      -0.50896100
Pt      11.22399000       6.48017000      14.58218000      -0.10195600       0.05329400      -0.49101500
Pt       5.61200000       6.48017000      14.58218000       0.08270000      -0.00102000      -0.38416600
Pt       8.41799000       6.48017000      14.58218000      -0.00153900      -0.01394000      -0.19305100
Pt      12.62699000       8.91024000      14.58218000       0.09708000      -0.00334700       0.01879200
Pt       7.01499000       8.91024000      14.58218000       0.00817000      -0.13398600      -0.49578700
Pt       9.82099000       8.91024000      14.58218000      -0.14741800       0.11165300      -0.06415700
Pt       0.00000000       0.00000000      16.87326000       0.11642000      -0.50184300       1.16435900
Pt       2.80600000       0.00000000      16.87326000      -0.06682900      -0.44372000       1.24326400
Pt       5.61200000       0.00000000      16.87326000      -0.01751400      -0.04212500      -0.08466700
Pt       4.20900000       2.43007000      16.87326000       0.23846400      -0.45730600      -0.32945100
Pt       4.20900000       4.05011000      14.58218000       0.01739500      -0.02957300      -0.40138100
Pt       2.80600000       4.86013000      16.87326000      -0.03763600       0.21608200       0.45451500
Pt       5.61200000       4.86013000      16.87326000       0.13129200      -0.06161600       0.68834100
Pt       8.41799000       4.86013000      16.87326000      -0.04016700       0.47102400       0.44102500
Pt       4.20900000       7.29020000      16.87326000      -0.14641900       0.27669400       0.59065600
Pt       7.01499000       7.29020000      16.87326000       0.33779000      -0.00904400      -0.29123600
Pt       9.82099000       7.29020000      16.87326000      -0.21163400       0.16730900      -0.13877300
Pt       1.40300000       2.43007000      16.87326000       0.23435800       0.49268100       0.60692700
Pt       7.01499000       2.43007000      16.87326000      -0.50552100      -0.11296600       0.44262100
Pt       0.00000000       0.00000000      10.00000000       0.02139800       0.04785200      -0.08395200
Pt       2.80600000       1.62004000      14.58218000      -0.05954800       0.06728400      -0.24547700
Pt       2.80600000       0.00000000      10.00000000      -0.03361500       0.00580500      -0.10664500
Pt       5.61200000       0.00000000      10.00000000       0.02196900      -0.05878200      -0.16763900
Pt       1.40300000       2.43007000      10.00000000       0.00939800      -0.04415400      -0.11804800
Pt       4.20900000       2.43007000      10.00000000       0.04391500      -0.02218900      -0.08438600
Pt       7.01499000       2.43007000      10.00000000      -0.05684900       0.00693300      -0.13955800
Pt       2.80600000       4.86013000      10.00000000      -0.00395000       0.04352900      -0.08238100
Pt       5.61200000       4.86013000      10.00000000      -0.01974400       0.01051200      -0.07014200
Pt       8.41799000       4.86013000      10.00000000       0.02893200       0.01543600      -0.05835800
Pt       4.20900000       7.29020000      10.00000000       0.00657300      -0.03580700      -0.08470800
Pt       7.01499000       7.29020000      10.00000000       0.02081800      -0.00081800      -0.10213200
Pt       9.82099000       7.29020000      10.00000000      -0.02987900       0.02083500      -0.13435800
Pt       5.61200000       1.62004000      14.58218000      -0.00687600      -0.00542800      -0.24308100
Pt       1.40300000       0.81002000      12.29109000       0.03718800       0.02706200       0.23853800
Pt       7.01499000       0.81002000      12.29109000      -0.06882600       0.04735700       0.08540300
Pt       2.80600000       3.24009000      12.29109000      -0.07401300       0.00516900       0.04037400
Pt       5.61200000       3.24009000      12.29109000       0.04182300      -0.04127300       0.17713200
Pt       8.41799000       3.24009000      12.29109000       0.02277800      -0.08150700       0.00720900
Pt       4.20900000       5.67015000      12.29109000      -0.00928600      -0.01285900       0.27055400
Pt       7.01499000       5.67015000      12.29109000       0.01685300      -0.01009300       0.18754500
Pt       9.82099000       5.67015000      12.29109000      -0.00876200       0.04402800       0.09536000
Pt       5.61200000       8.10022000      12.29109000      -0.06640000       0.06731700       0.09653400
Pt       8.41799000       8.10022000      12.29109000       0.07834800       0.02659800       0.11211300
Pt      11.22399000       8.10022000      12.29109000      -0.00558100      -0.00058300       0.01297500
Pt       8.41799000       1.62004000      14.58218000       0.07419400       0.09020600      -0.34171100
Pt       4.20900000       0.81002000      12.29109000       0.03667100      -0.05963700       0.09455200
Pt       9.82099000       4.05011000      14.58218000       0.11432500      -0.08499100      -0.16929900
56
Lattice="8.417993093 0.0 0.0 5.611995395 9.720261156 0.0 0.0 0.0 29.657262579" Properties=species:S:1:pos:R:3:forces:R:3 energy=-341.20011165 pbc="T T T"
C        8.41799000       8.10022000      18.27026000      -0.49893300       0.18378900      -3.26674800
C        8.41799000       2.43007000      18.49926000       2.13186800      -2.07800000      -2.42834700
C        7.01499000       4.05011000      18.27026000      -1.35804000       1.93587800      -3.30928100
C       11.22399000       7.29020000      18.49926000       0.57698700      -0.11883200      -2.70000500
O        8.41799000       2.43007000      19.65726000       1.15321900      -1.42615000       1.10831700
O        8.41799000       8.10022000      19.42826000      -0.09464600       0.04479200       2.99450100
O        7.01499000       4.05011000      19.42826000      -1.64071600       1.86109600       2.91082000
O       11.22399000       7.29020000      19.65726000      -0.00107500      -0.00081700       1.29263500
Pt       7.01499000       4.05011000      14.58218000      -0.00904800       0.00259200      -0.77060500
Pt      11.22399000       6.48017000      14.58218000      -0.12453500       0.02059300      -0.46871800
Pt       5.61200000       6.48017000      14.58218000      -0.04519200       0.13883000      -0.04720700
Pt       8.41799000       6.48017000      14.58218000       0.14922000       0.00707400      -0.35502900
Pt      12.62699000       8.91024000      14.58218000       0.08360600      -0.00086900      -0.26103900
Pt       7.01499000       8.91024000      14.58218000      -0.12209200       0.08975800      -0.45572500
Pt       9.82099000       8.91024000      14.58218000       0.02758900       0.05732700      -0.60574900
Pt       0.00000000       0.00000000      16.87326000      -0.17113100      -0.29571200      -0.18120100
Pt       2.80600000       0.00000000      16.87326000      -0.01663300       0.31825600       0.63467500
Pt       5.61200000       0.00000000      16.87326000       0.16901000       0.57605300      -0.18333200
Pt       4.20900000       2.43007000      16.87326000      -0.34089900      -0.19367300      -0.16716500
Pt       4.20900000       4.05011000      14.58218000      -0.06020800       0.10827700      -0.27394300
Pt       2.80600000       4.86013000      16.87326000       0.18968800      -0.41703000      -0.16960700
Pt       5.61200000       4.86013000      16.87326000      -0.12573000       0.02899200       0.62301100
Pt       8.41799000       4.86013000      16.87326000       0.02546900       0.08860700       0.44425000
Pt       4.20900000       7.29020000      16.87326000      -0.26314800      -0.04735300       1.22431700
Pt       7.01499000       7.29020000      16.87326000      -0.24285300       0.15621100       0.54240700
Pt       9.82099000       7.29020000      16.87326000       0.56904300      -0.25963000       1.53499900
Pt       1.40300000       2.43007000      16.87326000      -0.20743700      -0.14064700       1.35819300
Pt       7.01499000       2.43007000      16.87326000       0.06977800      -0.54833700       1.45413700
Pt       0.00000000       0.00000000      10.00000000       0.01128900       0.02692500      -0.10384900
Pt       2.80600000       1.62004000      14.58218000      -0.08560500      -0.02229800      -0.02059300
Pt       2.80600000       0.00000000      10.00000000      -0.02865400      -0.01386600      -0.12242000
Pt       5.61200000       0.00000000      10.00000000       0.04341800      -0.03608800      -0.06617900
Pt       1.40300000       2.43007000      10.00000000      -0.03178500      -0.01561200      -0.06554100
Pt       4.20900000       2.43007000      10.00000000       0.02727700       0.00100900      -0.04689000
Pt       7.01499000       2.43007000      10.00000000      -0.00271300       0.02867800      -0.10736600
Pt       2.80600000       4.86013000      10.00000000      -0.03042900       0.03685600      -0.13370500
Pt       5.61200000       4.86013000      10.00000000      -0.01448400      -0.05419000      -0.11507400
Pt       8.41799000       4.86013000      10.00000000       0.03574000      -0.04759600      -0.08590500
Pt       4.20900000       7.29020000      10.00000000      -0.01640400      -0.01667900      -0.03313800
Pt       7.01499000       7.29020000      10.00000000       0.03032800       0.02598600      -0.05437800
Pt       9.82099000       7.29020000      10.00000000      -0.00635600       0.02183600      -0.09655500
Pt       5.61200000       1.62004000      14.58218000       0.15820200       0.06691900      -0.01201900
Pt       1.40300000       0.81002000      12.29109000       0.11138300      -0.03381900       0.14861000
Pt       7.01499000       0.81002000      12.29109000      -0.00025700       0.05527700       0.12332400
Pt       2.80600000       3.24009000      12.29109000       0.03048300       0.05067600       0.00953500
Pt       5.61200000       3.24009000      12.29109000       0.01580800      -0.00257400       0.21735700
Pt       8.41799000       3.24009000      12.29109000      -0.04316800       0.00500700       0.23943800
Pt       4.20900000       5.67015000      12.29109000       0.05070800      -0.13492000       0.05786900
Pt       7.01499000       5.67015000      12.29109000      -0.05906400       0.01254200       0.03149000
Pt       9.82099000       5.67015000      12.29109000       0.00037900       0.01639500       0.11880600
Pt       5.61200000       8.10022000      12.29109000      -0.01786500       0.01492100       0.14033400
Pt       8.41799000       8.10022000      12.29109000       0.05621700       0.03599500       0.18139100
Pt      11.22399000       8.10022000      12.29109000      -0.05017400      -0.01526400       0.19674700
Pt       8.41799000       1.62004000      14.58218000      -0.03444100      -0.08992400      -0.60418600
Pt       4.20900000       0.81002000      12.29109000      -0.04608400      -0.00608100      -0.01456500
Pt       9.82099000       4.05011000      14.58218000       0.07308800      -0.00118500      -0.26109900
56
Lattice="8.417993093 0.0 0.0 5.611995395 9.720261156 0.0 0.0 0.0 29.657262579" Properties=species:S:1:pos:R:3:forces:R:3 energy=-342.86874242 pbc="T T T"
C        5.61200000       3.24009000      18.27026000       0.17863200       0.09416300      -3.08597300
C        8.41799000       6.48017000      18.27026000       0.51891200      -0.15906200      -3.15790900
C        2.80600000       1.62004000      18.27026000      -0.18777200      -0.08103800      -3.04973700
C        5.61200000       7.29020000      18.49926000      -0.58860600       0.24354000      -2.67022300
O        8.41799000       6.48017000      19.42826000       0.09292200      -0.05850100       2.93524000
O        5.61200000       3.24009000      19.42826000       0.05764600       0.03680200       2.97426400
O        2.80600000       1.62004000      19.42826000      -0.04925900      -0.05039800       2.94524100
O        5.61200000       7.29020000      19.65726000      -0.00561900      -0.02167400       1.25650400
Pt       7.01499000       4.05011000      14.58218000       0.07623300       0.03255100      -0.45765800
Pt      11.22399000       6.48017000      14.58218000       0.08460900       0.13137800      -0.04617100
Pt       5.61200000       6.48017000      14.58218000       0.00868300      -0.18188800      -0.51003900
Pt       8.41799000       6.48017000      14.58218000      -0.09680400       0.09494000      -0.46937200
Pt      12.62699000       8.91024000      14.58218000      -0.08657200      -0.01663100      -0.34230400
Pt       7.01499000       8.91024000      14.58218000       0.02736800      -0.03376900      -0.34499600
Pt       9.82099000       8.91024000      14.58218000       0.02950100      -0.00967300      -0.20678400
Pt       0.00000000       0.00000000      16.87326000      -0.34287200       0.44279600      -0.19805600
Pt       2.80600000       0.00000000      16.87326000       0.14114500       0.23313800       0.42232900
Pt       5.61200000       0.00000000      16.87326000       0.24177500      -0.40353000      -0.24653400
Pt       4.20900000       2.43007000      16.87326000      -0.08547600      -0.06859700       0.75867800
Pt       4.20900000       4.05011000      14.58218000      -0.05365100       0.00844900      -0.46345000
Pt       2.80600000       4.86013000      16.87326000      -0.18611300       0.29268600      -0.32451100
Pt       5.61200000       4.86013000      16.87326000      -0.23377600      -0.33976100       0.39457000
Pt       8.41799000       4.86013000      16.87326000       0.38704000      -0.05970800       0.50404300
Pt       4.20900000       7.29020000      16.87326000       0.26570700      -0.08591200       1.29143000
Pt       7.01499000       7.29020000      16.87326000      -0.44643200       0.01550900       1.49892100
Pt       9.82099000       7.29020000      16.87326000       0.18800300       0.09315500       0.56426200
Pt       1.40300000       2.43007000      16.87326000      -0.18604300       0.05881700       0.52330100
Pt       7.01499000       2.43007000      16.87326000       0.24458800      -0.20587300       0.58509700
Pt       0.00000000       0.00000000      10.00000000       0.01084300       0.00663300      -0.10067400
Pt       2.80600000       1.62004000      14.58218000       0.08318000       0.07675100      -0.57177500
Pt       2.80600000       0.00000000      10.00000000       0.04050800      -0.00664500      -0.08085500
Pt       5.61200000       0.00000000      10.00000000      -0.03264700      -0.01460100      -0.08010800
Pt       1.40300000       2.43007000      10.00000000       0.00388100       0.02979800      -0.06578500
Pt       4.20900000       2.43007000      10.00000000      -0.00389100       0.00390800      -0.11897600
Pt       7.01499000       2.43007000      10.00000000       0.00130600       0.02517100      -0.07679100
Pt       2.80600000       4.86013000      10.00000000       0.01630700      -0.05414000      -0.07781800
Pt       5.61200000       4.86013000      10.00000000       0.01762800      -0.02634700      -0.07377300
Pt       8.41799000       4.86013000      10.00000000      -0.02946300      -0.01655000      -0.10809600
Pt       4.20900000       7.29020000      10.00000000       0.00531000       0.02481100      -0.12122800
Pt       7.01499000       7.29020000      10.00000000      -0.02037100      -0.00151000      -0.06013800
Pt       9.82099000       7.29020000      10.00000000       0.01944500       0.02340900      -0.05600100
Pt       5.61200000       1.62004000      14.58218000      -0.02041400      -0.06620700      -0.46154300
Pt       1.40300000       0.81002000      12.29109000      -0.04528900      -0.06047200      -0.05695400
Pt       7.01499000       0.81002000      12.29109000       0.04485100      -0.02218900      -0.00536500
Pt       2.80600000       3.24009000      12.29109000       0.02613900      -0.01446500       0.13335900
Pt       5.61200000       3.24009000      12.29109000      -0.08179300      -0.02625200       0.21137700
Pt       8.41799000       3.24009000      12.29109000       0.07146600      -0.04667300       0.22579900
Pt       4.20900000       5.67015000      12.29109000      -0.02763100       0.05525900       0.02489100
Pt       7.01499000       5.67015000      12.29109000      -0.01875000       0.00610600       0.15902800
Pt       9.82099000       5.67015000      12.29109000       0.04561000      -0.05875900       0.01676200
Pt       5.61200000       8.10022000      12.29109000      -0.04281200       0.07710900       0.10334900
Pt       8.41799000       8.10022000      12.29109000      -0.03570200       0.06809800       0.24204900
Pt      11.22399000       8.10022000      12.29109000       0.07074000      -0.06188500       0.22011600
Pt       8.41799000       1.62004000      14.58218000      -0.06841500       0.05522800      -0.13493300
Pt       4.20900000       0.81002000      12.29109000       0.00324600       0.03841800       0.11134400
Pt       9.82099000       4.05011000      14.58218000      -0.02705600      -0.01591500      -0.27742300
56
Lattice="8.417993093 0.0 0.0 5.611995395 9.720261156 0.0 0.0 0.0 29.657262579" Properties=species:S:1:pos:R:3:forces:R:3 energy=-339.39649112 pbc="T T T"
C        9.82099000       5.67015000      18.27026000      -1.32818200      -1.92461700      -3.37423700
C        7.01499000       0.00000000      18.49926000      -1.85222100       2.68815900      -2.32716500
C       11.22399000       7.29020000      18.49926000       1.31379900       1.62210700      -2.15697000
C        5.61200000       8.10022000      18.27026000       1.80497100      -1.73745300      -3.15035900
O        7.01499000       0.00000000      19.65726000      -1.09873600       1.45643000       1.06337300
O        9.82099000       5.67015000      19.42826000      -1.65174300      -1.87591700       2.96207600
O       11.22399000       7.29020000      19.65726000       1.11013300       1.30904800       0.90659600
O        5.61200000       8.10022000      19.42826000       1.73018100      -1.81968300       2.86734700
Pt       7.01499000       4.05011000      14.58218000       0.04502800       0.02305500      -0.18344300
Pt      11.22399000       6.48017000      14.58218000       0.21942700      -0.00220700      -0.72672100
Pt       5.61200000       6.48017000      14.58218000      -0.13779000       0.04888100      -0.24163100
Pt       8.41799000       6.48017000      14.58218000      -0.04417200       0.25338600      -0.25324300
Pt      12.62699000       8.91024000      14.58218000      -0.04285700      -0.04643000      -0.90868900
Pt       7.01499000       8.91024000      14.58218000      -0.04621700       0.16509700      -0.24005900
Pt       9.82099000       8.91024000      14.58218000       0.04150800      -0.01279700       0.05503300
Pt       0.00000000       0.00000000      16.87326000       0.02209800       0.56560400       1.35212900
Pt       2.80600000       0.00000000      16.87326000       0.20017400       0.40057000      -0.16781200
Pt       5.61200000       0.00000000      16.87326000       0.18801300       0.54414900       1.24314100
Pt       4.20900000       2.43007000      16.87326000      -0.11908300       0.09737200      -0.00925100
Pt       4.20900000       4.05011000      14.58218000      -0.06645100       0.01895800      -0.16314300
Pt       2.80600000       4.86013000      16.87326000       0.20768100      -0.69660400       0.54369700
Pt       5.61200000       4.86013000      16.87326000       0.11327000      -0.56211100      -0.13861500
Pt       8.41799000       4.86013000      16.87326000      -0.24774100      -0.19024200       0.72983800
Pt       4.20900000       7.29020000      16.87326000      -0.40847900      -0.85388300       1.39847200
Pt       7.01499000       7.29020000      16.87326000      -0.11570900       0.05876200       0.63444500
Pt       9.82099000       7.29020000      16.87326000       0.00866700       0.45992200       1.36410100
Pt       1.40300000       2.43007000      16.87326000       0.16203500      -0.20601800      -0.11478100
Pt       7.01499000       2.43007000      16.87326000      -0.03521300       0.55374500      -0.07042800
Pt       0.00000000       0.00000000      10.00000000       0.00457700      -0.00502700      -0.05712400
Pt       2.80600000       1.62004000      14.58218000       0.01707100       0.00754300      -0.24494300
Pt       2.80600000       0.00000000      10.00000000       0.01609100       0.02072900      -0.02814400
Pt       5.61200000       0.00000000      10.00000000      -0.02114400       0.02321800      -0.02516900
Pt       1.40300000       2.43007000      10.00000000       0.00541000       0.00423500      -0.05828600
Pt       4.20900000       2.43007000      10.00000000      -0.02419800       0.04464500      -0.13605100
Pt       7.01499000       2.43007000      10.00000000       0.04117900       0.01760500      -0.08781800
Pt       2.80600000       4.86013000      10.00000000       0.01719600      -0.02537000      -0.10408300
Pt       5.61200000       4.86013000      10.00000000      -0.01068400      -0.00374900      -0.10454300
Pt       8.41799000       4.86013000      10.00000000       0.00519800       0.02596800      -0.16543300
Pt       4.20900000       7.29020000      10.00000000       0.01222100      -0.00857300      -0.10253900
Pt       7.01499000       7.29020000      10.00000000      -0.03284100      -0.05599700      -0.07598700
Pt       9.82099000       7.29020000      10.00000000       0.02485000      -0.05714600      -0.10200000
Pt       5.61200000       1.62004000      14.58218000      -0.09075900       0.03268300      -0.37711200
Pt       1.40300000       0.81002000      12.29109000      -0.01098300       0.02065000       0.18843000
Pt       7.01499000       0.81002000      12.29109000      -0.00471400       0.08049000       0.15532700
Pt       2.80600000       3.24009000      12.29109000       0.03638800      -0.00934100       0.18787800
Pt       5.61200000       3.24009000      12.29109000      -0.01730200      -0.03907300      -0.05665400
Pt       8.41799000       3.24009000      12.29109000      -0.04553600       0.10906800       0.04363900
Pt       4.20900000       5.67015000      12.29109000       0.01261300      -0.02780100       0.12458000
Pt       7.01499000       5.67015000      12.29109000       0.05711500      -0.13509900       0.07176500
Pt       9.82099000       5.67015000      12.29109000      -0.04211300      -0.06762200       0.05422700
Pt       5.61200000       8.10022000      12.29109000      -0.00296200      -0.00247200       0.24514400
Pt       8.41799000       8.10022000      12.29109000       0.03343100      -0.11365000       0.09077500
Pt      11.22399000       8.10022000      12.29109000      -0.05266800      -0.03383800       0.18919600
Pt       8.41799000       1.62004000      14.58218000       0.07080700      -0.17160100      -0.16707000