18
Lattice="2.805997698 0.0 0.0 5.611995395 9.720261156 0.0 0.0 0.0 29.886262579" Properties=species:S:1:pos:R:3:forces:R:3 energy=-108.66576288 pbc="T T T"
C        4.20900000       7.29020000      18.72826000       0.00000000      -0.00108300      -0.07486400
O        4.20900000       7.29020000      19.88626000       0.00000000      -0.00205700       0.07623600
Pt       4.20900000       7.29020000      16.87326000       0.00000000       0.03999600       0.78166400
Pt       2.80600000       4.86013000      16.87326000       0.00000000      -0.74209100      -0.16299300
Pt       1.40300000       2.43007000      16.87326000       0.00000000      -0.01862500       0.01962600
Pt       0.00000000       0.00000000      16.87326000      -0.00000000       0.75393300      -0.19743600
Pt       7.01499000       8.91024000      14.58218000      -0.00000000      -0.13733500      -0.07009400
Pt       5.61200000       6.48017000      14.58218000      -0.00000000       0.08800900      -0.19333100
Pt       4.20900000       4.05011000      14.58218000       0.00000000      -0.00354400      -0.23781200
Pt       0.00000000       0.00000000      10.00000000       0.00000000       0.01839900       0.00237000
Pt       4.20900000       5.67015000      12.29109000       0.00000000      -0.05359800       0.04722100
Pt       2.80600000       3.24009000      12.29109000       0.00000000      -0.00829900       0.18001800
Pt       1.40300000       0.81002000      12.29109000       0.00000000       0.04305300       0.11191400
Pt       4.20900000       7.29020000      10.00000000       0.00000000      -0.02001400      -0.03450700
Pt       2.80600000       4.86013000      10.00000000       0.00000000      -0.03810500      -0.15668500
Pt       1.40300000       2.43007000      10.00000000       0.00000000       0.08371000      -0.09620800
Pt       5.61200000       8.10022000      12.29109000       0.00000000      -0.00063500       0.24180800
Pt       2.80600000       1.62004000      14.58218000       0.00000000      -0.00171200      -0.23692800
18
Lattice="2.805997698 0.0 0.0 5.611995395 9.720261156 0.0 0.0 0.0 29.428262579" Properties=species:S:1:pos:R:3:forces:R:3 energy=-108.73915084 pbc="T T T"
C        1.40300000       0.81002000      18.27026000      -0.00000000       0.18980400      -2.93688100
O        1.40300000       0.81002000      19.42826000      -0.00000000       0.02613800       2.77822300
Pt       4.20900000       7.29020000      16.87326000       0.00000000      -0.41824300      -0.11962300
Pt       2.80600000       4.86013000      16.87326000       0.00000000       0.03213000      -0.02792200
Pt       1.40300000       2.43007000      16.87326000      -0.00000000       0.54972600       0.52531800
Pt       0.00000000       0.00000000      16.87326000      -0.00000000      -0.45141000       0.83066800
Pt       7.01499000       8.91024000      14.58218000      -0.00000000       0.02890300      -0.26086000
Pt       5.61200000       6.48017000      14.58218000      -0.00000000      -0.04202100      -0.28963300
Pt       4.20900000       4.05011000      14.58218000      -0.00000000      -0.11859600      -0.08804400
Pt       0.00000000       0.00000000      10.00000000      -0.00000000      -0.00806500      -0.03131100
Pt       4.20900000       5.67015000      12.29109000      -0.00000000       0.11707600       0.09699900
Pt       2.80600000       3.24009000      12.29109000      -0.00000000       0.06590200       0.17512500
Pt       1.40300000       0.81002000      12.29109000      -0.00000000      -0.05321900       0.18874300
Pt       4.20900000       7.29020000      10.00000000      -0.00000000       0.03235300      -0.16043300
Pt       2.80600000       4.86013000      10.00000000       0.00000000       0.04391700      -0.00595900
Pt       1.40300000       2.43007000      10.00000000      -0.00000000       0.00117600      -0.02896300
Pt       5.61200000       8.10022000      12.29109000      -0.00000000      -0.09055900       0.01709200
Pt       2.80600000       1.62004000      14.58218000      -0.00000000       0.09498700      -0.66254100
18
Lattice="2.805997698 0.0 0.0 5.611995395 9.720261156 0.0 0.0 0.0 29.657262579" Properties=species:S:1:pos:R:3:forces:R:3 energy=-108.4745049 pbc="T T T"
C        2.80600000       2.43007000      18.49926000      -0.00000000       0.07134200      -2.99437900
O        2.80600000       2.43007000      19.65726000       0.00000000      -0.02137000       1.25161200
Pt       4.20900000       7.29020000      16.87326000       0.00000000      -0.02327600       0.05520300
Pt       2.80600000       4.86013000      16.87326000       0.00000000       0.83891800      -0.11552500
Pt       1.40300000       2.43007000      16.87326000      -0.00000000      -0.19847900       2.56964700
Pt       0.00000000       0.00000000      16.87326000      -0.00000000      -0.78015800      -0.08095400
Pt       7.01499000       8.91024000      14.58218000       0.00000000      -0.00998800      -0.27661100
Pt       5.61200000       6.48017000      14.58218000       0.00000000      -0.00907900      -0.24217800
Pt       4.20900000       4.05011000      14.58218000       0.00000000      -0.00392000      -0.31250800
Pt       0.00000000       0.00000000      10.00000000       0.00000000      -0.02013400      -0.11953600
Pt       4.20900000       5.67015000      12.29109000       0.00000000       0.04814800       0.10472500
Pt       2.80600000       3.24009000      12.29109000       0.00000000      -0.00726300       0.23396300
Pt       1.40300000       0.81002000      12.29109000       0.00000000      -0.06130100       0.05694900
Pt       4.20900000       7.29020000      10.00000000       0.00000000       0.05934800      -0.04710000
Pt       2.80600000       4.86013000      10.00000000       0.00000000       0.01734900       0.00794200
Pt       1.40300000       2.43007000      10.00000000       0.00000000      -0.01119500      -0.01185800
Pt       5.61200000       8.10022000      12.29109000       0.00000000      -0.01101100       0.16702000
Pt       2.80600000       1.62004000      14.58218000       0.00000000       0.12207000      -0.24641400
18
Lattice="2.805997698 0.0 0.0 5.611995395 9.720261156 0.0 0.0 0.0 29.428262579" Properties=species:S:1:pos:R:3:forces:R:3 energy=-108.69253697 pbc="T T T"
C        2.80600000       1.62004000      18.27026000      -0.00000000      -0.14122000      -2.89391700
O        2.80600000       1.62004000      19.42826000      -0.00000000      -0.05035000       2.75028200
Pt       4.20900000       7.29020000      16.87326000      -0.00000000      -0.11030000       0.01106700
Pt       2.80600000       4.86013000      16.87326000       0.00000000       0.44991900      -0.12459400
Pt       1.40300000       2.43007000      16.87326000      -0.00000000       0.34798800       0.80203800
Pt       0.00000000       0.00000000      16.87326000       0.00000000      -0.44194000       0.54712000
Pt       7.01499000       8.91024000      14.58218000      -0.00000000      -0.04141500      -0.30561100
Pt       5.61200000       6.48017000      14.58218000      -0.00000000       0.00485700      -0.26350900
Pt       4.20900000       4.05011000      14.58218000      -0.00000000      -0.07561600      -0.14877100
Pt       0.00000000       0.00000000      10.00000000      -0.00000000      -0.01661900      -0.05962400
Pt       4.20900000       5.67015000      12.29109000      -0.00000000       0.09390300       0.09499700
Pt       2.80600000       3.24009000      12.29109000      -0.00000000      -0.00012700       0.22271800
Pt       1.40300000       0.81002000      12.29109000      -0.00000000      -0.05262400       0.07235500
Pt       4.20900000       7.29020000      10.00000000      -0.00000000       0.05165000      -0.11904300
Pt       2.80600000       4.86013000      10.00000000      -0.00000000       0.01306300      -0.00716500
Pt       1.40300000       2.43007000      10.00000000      -0.00000000       0.00625900      -0.03467300
Pt       5.61200000       8.10022000      12.29109000      -0.00000000      -0.06543400       0.10951400
Pt       2.80600000       1.62004000      14.58218000      -0.00000000       0.02800700      -0.65318500
