60
Lattice="8.417993093 0.0 0.0 5.611995395 9.720261156 0.0 0.0 0.0 29.886262579" Properties=species:S:1:pos:R:3:forces:R:3 energy=-373.78056402 pbc="T T T"
C        2.80600000       2.43007000      18.49926000      -0.01107600       0.10520900      -3.29174900
C        5.61200000       0.00000000      18.72826000      -0.61501900       0.75407300       0.31950200
C       11.22399000       7.29020000      18.49926000       0.88116400      -1.19986100      -3.14391400
C        8.41799000       7.29020000      18.49926000      -0.90321100       0.01180300      -3.18730000
C        0.00000000       0.00000000      18.72826000       0.63972000      -0.36219200       0.07010600
C        7.01499000       2.43007000      18.72826000       0.01206000       0.84681200       0.06433300
O        5.61200000       0.00000000      19.88626000      -0.21380400       0.58600100      -0.09875600
O        2.80600000       2.43007000      19.65726000       0.00228900      -0.02591300       1.76927300
O        7.01499000       2.43007000      19.88626000      -0.00369800       0.22160900      -0.03409600
O        8.41799000       7.29020000      19.65726000      -0.01597200      -0.00480400       1.56730800
O       11.22399000       7.29020000      19.65726000       0.01479400      -0.78618400       1.44799700
O        0.00000000       0.00000000      19.88626000       0.21715600      -0.12852300      -0.00674400
Pt       5.61200000       6.48017000      14.58218000       0.00794700       0.17558300       0.14531300
Pt       8.41799000       6.48017000      14.58218000       0.12772700       0.02281700      -0.44232000
Pt      12.62699000       8.91024000      14.58218000       0.06129700       0.15294500      -0.28176000
Pt       7.01499000       8.91024000      14.58218000      -0.18611700       0.13160000      -0.29769900
Pt       9.82099000       8.91024000      14.58218000       0.12670200       0.09915600      -0.36354700
Pt       0.00000000       0.00000000      16.87326000       0.48512800      -0.24784300       0.69670400
Pt       2.80600000       0.00000000      16.87326000      -0.11746300       0.09003900      -0.34660600
Pt       5.61200000       0.00000000      16.87326000      -0.41236200       0.33662200       0.48791100
Pt       4.20900000       2.43007000      16.87326000      -0.90600700       0.25082400       1.04110500
Pt       7.01499000       2.43007000      16.87326000       0.01233300       0.68957100       0.82458300
Pt       2.80600000       4.86013000      16.87326000       0.15349600      -0.11375400      -0.20679800
Pt       5.61200000       4.86013000      16.87326000      -0.10657800       0.34617000      -0.25314200
Pt      11.22399000       6.48017000      14.58218000      -0.15200100      -0.05278000      -0.35203500
Pt       4.20900000       7.29020000      16.87326000      -0.32607400      -0.83435600       1.16877200
Pt       7.01499000       7.29020000      16.87326000       0.46011700      -0.41982400       1.22677500
Pt       9.82099000       7.29020000      16.87326000      -0.12521700      -0.59836800       2.31360200
Pt       1.40300000       2.43007000      16.87326000       0.94486500       0.27978600       1.07512800
Pt       8.41799000       4.86013000      16.87326000      -0.05689900      -0.12331000      -0.22552800
Pt       0.00000000       0.00000000      10.00000000       0.03755300      -0.02777900      -0.11646000
Pt       9.82099000       4.05011000      14.58218000      -0.01579900       0.03159700      -0.26078400
Pt       2.80600000       0.00000000      10.00000000       0.00182500      -0.07161100      -0.16906700
Pt       5.61200000       0.00000000      10.00000000      -0.03607800      -0.02431000      -0.08665900
Pt       1.40300000       2.43007000      10.00000000       0.00792600       0.01548600      -0.04959900
Pt       4.20900000       2.43007000      10.00000000       0.01017500       0.02945900      -0.08068100
Pt       7.01499000       2.43007000      10.00000000      -0.01901100       0.01741900      -0.04487800
Pt       2.80600000       4.86013000      10.00000000      -0.05304000      -0.01279200      -0.09587900
Pt       5.61200000       4.86013000      10.00000000       0.02461000       0.03739200      -0.18847300
Pt       8.41799000       4.86013000      10.00000000       0.01592700       0.05742000      -0.16087500
Pt       4.20900000       7.29020000      10.00000000      -0.01549500       0.03026900      -0.06202000
Pt       7.01499000       7.29020000      10.00000000      -0.00984600      -0.01287800      -0.22901900
Pt       9.82099000       7.29020000      10.00000000       0.02759600      -0.05737400      -0.20566200
Pt       1.40300000       0.81002000      12.29109000       0.00697800      -0.03040100       0.08622300
Pt       4.20900000       4.05011000      14.58218000      -0.00417500      -0.01152000      -0.31263900
Pt       4.20900000       0.81002000      12.29109000      -0.02332400      -0.01357400       0.05109700
Pt       2.80600000       3.24009000      12.29109000       0.04289700      -0.00430800       0.20862900
Pt       5.61200000       3.24009000      12.29109000       0.01350800       0.08940900       0.16719900
Pt       8.41799000       3.24009000      12.29109000      -0.05046100       0.06632200       0.17522300
Pt       4.20900000       5.67015000      12.29109000       0.06761700      -0.06617800      -0.00880200
Pt       7.01499000       5.67015000      12.29109000      -0.04518200      -0.01091600      -0.05867400
Pt       9.82099000       5.67015000      12.29109000      -0.01782600       0.05556800       0.04312200
Pt       5.61200000       8.10022000      12.29109000       0.09936600      -0.05801800       0.22248900
Pt       8.41799000       8.10022000      12.29109000       0.01049900      -0.08301500       0.09152900
Pt      11.22399000       8.10022000      12.29109000      -0.10581300       0.00220200       0.20579100
Pt       8.41799000       1.62004000      14.58218000       0.03555000       0.05931900      -0.03065200
Pt       2.80600000       1.62004000      14.58218000      -0.00903000      -0.05533300      -0.56272000
Pt       5.61200000       1.62004000      14.58218000      -0.02152200       0.05040800      -0.04393800
Pt       7.01499000       0.81002000      12.29109000       0.00478400      -0.05819000       0.09040000
Pt       7.01499000       4.05011000      14.58218000       0.02449600      -0.14697900      -0.26064200
60
Lattice="8.417993093 0.0 0.0 5.611995395 9.720261156 0.0 0.0 0.0 29.657262579" Properties=species:S:1:pos:R:3:forces:R:3 energy=-374.71823795 pbc="T T T"
C        7.01499000       5.67015000      18.27026000       0.56902600      -0.04925200      -2.83391700
C        8.41799000       2.43007000      18.49926000      -0.60391700      -0.10786900      -2.56917400
C        2.80600000       3.24009000      18.27026000      -0.12594900       0.08021400      -2.74923300
C        4.20900000       5.67015000      18.27026000      -0.25482400       0.58282600      -2.89402600
C        7.01499000       8.91024000      18.27026000      -0.13884300       0.00498600      -2.73054400
C        4.20900000       0.81002000      18.27026000       0.44403900      -0.48255700      -2.81542000
O        8.41799000       2.43007000      19.65726000      -0.00060300      -0.00183700       1.16905900
O        7.01499000       5.67015000      19.42826000       0.13612800      -0.07150600       2.79954300
O        4.20900000       0.81002000      19.42826000       0.10028600      -0.08509000       2.78855000
O        4.20900000       5.67015000      19.42826000      -0.03911500       0.12554700       2.72910300
O        2.80600000       3.24009000      19.42826000      -0.02360700       0.03305400       2.63652400
O        7.01499000       8.91024000      19.42826000      -0.06259800       0.05287100       2.84137700
Pt       5.61200000       6.48017000      14.58218000       0.05175800       0.10951800      -0.73629000
Pt       8.41799000       6.48017000      14.58218000       0.05365500       0.01434800      -0.38874400
Pt      12.62699000       8.91024000      14.58218000      -0.07393100      -0.03549600      -0.11729200
Pt       7.01499000       8.91024000      14.58218000       0.09896800      -0.08510700      -0.42206800
Pt       9.82099000       8.91024000      14.58218000      -0.01640400      -0.10658200      -0.44285500
Pt       0.00000000       0.00000000      16.87326000      -0.18304800      -0.44071400       0.30772600
Pt       2.80600000       0.00000000      16.87326000       0.02215600      -0.43876900       0.59693000
Pt       5.61200000       0.00000000      16.87326000       0.13114100      -0.17275800       0.48420400
Pt       4.20900000       2.43007000      16.87326000       0.33252700      -0.06163300       0.71321900
Pt       7.01499000       2.43007000      16.87326000       0.59776800      -0.28557500       1.00407900
Pt       2.80600000       4.86013000      16.87326000      -0.21531600       0.24027400       0.78764800
Pt       5.61200000       4.86013000      16.87326000       0.14569800      -0.16172800       0.68485200
Pt      11.22399000       6.48017000      14.58218000      -0.11237600      -0.06556800      -0.33118600
Pt       4.20900000       7.29020000      16.87326000      -0.54526500       0.27854400       0.47354000
Pt       7.01499000       7.29020000      16.87326000       0.28222400       0.21346500       0.60987300
Pt       9.82099000       7.29020000      16.87326000       0.30880900      -0.13723500      -0.38255000
Pt       1.40300000       2.43007000      16.87326000      -0.80053200       0.22273100       1.36814900
Pt       8.41799000       4.86013000      16.87326000      -0.08367100       0.51488800       0.39357800
Pt       0.00000000       0.00000000      10.00000000       0.02648700      -0.03417200      -0.08321300
Pt       9.82099000       4.05011000      14.58218000      -0.04940400       0.20070200      -0.41511700
Pt       2.80600000       0.00000000      10.00000000      -0.02346300      -0.00551700      -0.10793100
Pt       5.61200000       0.00000000      10.00000000       0.00031400       0.00974100      -0.15632100
Pt       1.40300000       2.43007000      10.00000000       0.02399400       0.00430200      -0.14264200
Pt       4.20900000       2.43007000      10.00000000      -0.01263300      -0.04081200      -0.09933400
Pt       7.01499000       2.43007000      10.00000000      -0.00537300       0.00064900      -0.12165900
Pt       2.80600000       4.86013000      10.00000000       0.03517000      -0.00487400      -0.10236900
Pt       5.61200000       4.86013000      10.00000000      -0.00688100       0.03285600      -0.06216000
Pt       8.41799000       4.86013000      10.00000000       0.00112500      -0.00236200      -0.04809400
Pt       4.20900000       7.29020000      10.00000000      -0.02392900      -0.00800400      -0.08907300
Pt       7.01499000       7.29020000      10.00000000       0.04112900       0.01081400      -0.11743700
Pt       9.82099000       7.29020000      10.00000000      -0.01558100       0.03090400      -0.08170500
Pt       1.40300000       0.81002000      12.29109000      -0.01726700       0.10845600       0.04357900
Pt       4.20900000       4.05011000      14.58218000       0.19057700      -0.09119100      -0.53051700
Pt       4.20900000       0.81002000      12.29109000       0.01717100      -0.06069400       0.13690500
Pt       2.80600000       3.24009000      12.29109000      -0.03955200      -0.01184800       0.03203100
Pt       5.61200000       3.24009000      12.29109000       0.00583800      -0.04733600       0.14367300
Pt       8.41799000       3.24009000      12.29109000       0.04255100      -0.07490100       0.03725400
Pt       4.20900000       5.67015000      12.29109000      -0.07156300       0.02890200       0.08153200
Pt       7.01499000       5.67015000      12.29109000      -0.02742100       0.04145500       0.18513400
Pt       9.82099000       5.67015000      12.29109000       0.08964100      -0.03212100       0.05753800
Pt       5.61200000       8.10022000      12.29109000      -0.04059100      -0.01775600       0.03205000
Pt       8.41799000       8.10022000      12.29109000      -0.02593600       0.02022400       0.15201400
Pt      11.22399000       8.10022000      12.29109000       0.06726400       0.07619500      -0.02262500
Pt       8.41799000       1.62004000      14.58218000       0.06099200      -0.01342400      -0.51865200
Pt       2.80600000       1.62004000      14.58218000      -0.16268100       0.03320400      -0.58997700
Pt       5.61200000       1.62004000      14.58218000       0.09062200       0.19582300      -0.16676800
Pt       7.01499000       0.81002000      12.29109000      -0.02584900      -0.03309700      -0.02284600
Pt       7.01499000       4.05011000      14.58218000      -0.13893400      -0.00010700      -0.39792300
60
Lattice="8.417993093 0.0 0.0 5.611995395 9.720261156 0.0 0.0 0.0 29.657262579" Properties=species:S:1:pos:R:3:forces:R:3 energy=-370.02663537 pbc="T T T"
C        7.01499000       4.86013000      18.49926000       4.38584800       0.18196400      -1.84576200
C        8.41799000       1.62004000      18.27026000      -1.14110300       1.76246700      -3.00550400
C        1.40300000       0.00000000      18.49926000       2.18965500      -1.98096300      -2.38217700
C        5.61200000       6.48017000      18.27026000      -0.93606800       2.03967700      -2.98552000
C       11.22399000       7.29020000      18.49926000      -0.64860500       0.22262000      -2.73128600
C        5.61200000       3.24009000      18.27026000      -1.55341900      -2.20457400      -2.90006700
O        8.41799000       1.62004000      19.42826000      -1.57956300       1.84098500       2.82351000
O        7.01499000       4.86013000      19.65726000       2.26024700      -0.06412800       0.69005300
O        5.61200000       3.24009000      19.42826000      -1.70702100      -1.75721500       2.84090000
O        5.61200000       6.48017000      19.42826000      -1.53947200       1.79710800       2.77576300
O        1.40300000       0.00000000      19.65726000       1.14065300      -1.44005500       1.05195400
O       11.22399000       7.29020000      19.65726000       0.01323600      -0.03019400       1.27984500
Pt       5.61200000       6.48017000      14.58218000      -0.10221100      -0.08424000      -0.47227500
Pt       8.41799000       6.48017000      14.58218000       0.12333700       0.14952500      -0.15521100
Pt      12.62699000       8.91024000      14.58218000       0.15335100       0.04353000      -0.06365900
Pt       7.01499000       8.91024000      14.58218000      -0.02813600      -0.05304300      -0.67265500
Pt       9.82099000       8.91024000      14.58218000      -0.09680300       0.12392600      -0.12473100
Pt       0.00000000       0.00000000      16.87326000       0.26654900      -0.17780000       1.23785700
Pt       2.80600000       0.00000000      16.87326000      -0.30259600      -0.04087800       1.28043400
Pt       5.61200000       0.00000000      16.87326000      -0.35180900       0.03852200      -0.37232600
Pt       4.20900000       2.43007000      16.87326000      -0.03345400      -0.07135400       0.64576800
Pt       7.01499000       2.43007000      16.87326000       0.05780800      -0.60976600       0.56857100
Pt       2.80600000       4.86013000      16.87326000      -0.56134600      -0.44731500      -0.32786600
Pt       5.61200000       4.86013000      16.87326000      -0.07552000       0.04100700       1.02501700
Pt      11.22399000       6.48017000      14.58218000      -0.01882400       0.01507500      -0.60607700
Pt       4.20900000       7.29020000      16.87326000      -0.49421700      -0.04431300       1.60046200
Pt       7.01499000       7.29020000      16.87326000       0.07346700      -0.01289800       0.40592300
Pt       9.82099000       7.29020000      16.87326000       0.53212000       0.00660900       1.18258400
Pt       1.40300000       2.43007000      16.87326000       0.18392600       0.45005100       0.47325200
Pt       8.41799000       4.86013000      16.87326000      -0.31126600       0.09156000       1.32608300
Pt       0.00000000       0.00000000      10.00000000      -0.00537800       0.05057000      -0.16328900
Pt       9.82099000       4.05011000      14.58218000      -0.05861000       0.15495200      -0.04371000
Pt       2.80600000       0.00000000      10.00000000      -0.01956300      -0.04664700      -0.11732800
Pt       5.61200000       0.00000000      10.00000000       0.01630200      -0.03794300      -0.03199400
Pt       1.40300000       2.43007000      10.00000000      -0.03011100      -0.05542200      -0.08699000
Pt       4.20900000       2.43007000      10.00000000       0.08014800       0.01013500      -0.11583800
Pt       7.01499000       2.43007000      10.00000000      -0.05537300       0.04805200      -0.15309000
Pt       2.80600000       4.86013000      10.00000000      -0.02118000      -0.01347700      -0.06336400
Pt       5.61200000       4.86013000      10.00000000      -0.03055500      -0.03360000      -0.11178700
Pt       8.41799000       4.86013000      10.00000000       0.04012900      -0.00982100      -0.11667100
Pt       4.20900000       7.29020000      10.00000000       0.04442500      -0.00955600      -0.10634700
Pt       7.01499000       7.29020000      10.00000000      -0.01314500       0.04279100      -0.06334300
Pt       9.82099000       7.29020000      10.00000000      -0.01871500      -0.03192100      -0.14074900
Pt       1.40300000       0.81002000      12.29109000       0.02437400      -0.04581000      -0.03063200
Pt       4.20900000       4.05011000      14.58218000       0.07830800       0.18421300      -0.22771600
Pt       4.20900000       0.81002000      12.29109000      -0.09367500      -0.00127300       0.03494400
Pt       2.80600000       3.24009000      12.29109000      -0.02176500      -0.06539400       0.06561000
Pt       5.61200000       3.24009000      12.29109000       0.06060200      -0.00637000       0.26503700
Pt       8.41799000       3.24009000      12.29109000       0.07689700      -0.00025000       0.08638700
Pt       4.20900000       5.67015000      12.29109000      -0.01162900       0.00903000       0.16019400
Pt       7.01499000       5.67015000      12.29109000       0.00346000      -0.01077000       0.03725400
Pt       9.82099000       5.67015000      12.29109000      -0.02829200       0.00302300       0.03090500
Pt       5.61200000       8.10022000      12.29109000       0.00804300       0.11024100       0.14982400
Pt       8.41799000       8.10022000      12.29109000       0.06950800      -0.00412900       0.13255100
Pt      11.22399000       8.10022000      12.29109000       0.00398900      -0.07167700       0.11472500
Pt       8.41799000       1.62004000      14.58218000      -0.14810100       0.09054000      -0.67720500
Pt       2.80600000       1.62004000      14.58218000       0.09231300       0.08668700      -0.25776200
Pt       5.61200000       1.62004000      14.58218000       0.03776100      -0.04500400      -0.39654700
Pt       7.01499000       0.81002000      12.29109000       0.05874500       0.04919900       0.11914700
Pt       7.01499000       4.05011000      14.58218000      -0.03767700      -0.13625700      -0.85507500
60
Lattice="8.417993093 0.0 0.0 5.611995395 9.720261156 0.0 0.0 0.0 29.886262579" Properties=species:S:1:pos:R:3:forces:R:3 energy=-374.50164697 pbc="T T T"
C        1.40300000       2.43007000      18.72826000      -0.10198800      -0.17192600       0.35878500
C        4.20900000       4.86013000      18.49926000       0.08988000      -0.02286900      -2.67904800
C        9.82099000       5.67015000      18.27026000      -0.53828300       0.32019000      -3.35811400
C        5.61200000       7.29020000      18.49926000       0.26186500       0.57207400      -2.92227700
C        5.61200000       2.43007000      18.49926000       0.54166200       0.05597900      -2.88127200
C        4.20900000       0.00000000      18.49926000      -0.20648300      -0.44590500      -2.90514000
O        4.20900000       4.86013000      19.65726000      -0.10889500      -0.01540600       1.24723700
O        1.40300000       2.43007000      19.88626000       0.02548700       0.01133000      -0.21951600
O        4.20900000       0.00000000      19.65726000      -0.06590800      -0.08690400       1.45575700
O        5.61200000       7.29020000      19.65726000       0.05105800       0.05952900       1.42913700
O        9.82099000       5.67015000      19.42826000      -0.08922000       0.03942900       3.12492200
O        5.61200000       2.43007000      19.65726000       0.09509900      -0.01914500       1.39759800
Pt       5.61200000       6.48017000      14.58218000       0.03525700      -0.05409100      -0.66248500
Pt       8.41799000       6.48017000      14.58218000      -0.15389000       0.17850200      -0.23770800
Pt      12.62699000       8.91024000      14.58218000      -0.14396300       0.14538400      -0.11589000
Pt       7.01499000       8.91024000      14.58218000       0.13755800       0.09039800      -0.13709000
Pt       9.82099000       8.91024000      14.58218000      -0.00418400      -0.20431600      -0.44604300
Pt       0.00000000       0.00000000      16.87326000      -0.10575800       0.05457300      -0.31257400
Pt       2.80600000       0.00000000      16.87326000       0.52476300      -0.40380900       1.07767600
Pt       5.61200000       0.00000000      16.87326000      -0.38514500      -0.51939600       1.06696000
Pt       4.20900000       2.43007000      16.87326000       0.74749900      -0.13307300       0.86854400
Pt       7.01499000       2.43007000      16.87326000      -0.62832900      -0.10017100       1.09776600
Pt       2.80600000       4.86013000      16.87326000       0.70120100       0.02053200       1.42361700
Pt       5.61200000       4.86013000      16.87326000      -0.30848800      -0.15645700       0.91170200
Pt      11.22399000       6.48017000      14.58218000       0.11074400       0.14398300      -0.35856800
Pt       4.20900000       7.29020000      16.87326000       0.68113900       0.52941700       1.06206900
Pt       7.01499000       7.29020000      16.87326000      -0.61008700       0.03344100       1.10631800
Pt       9.82099000       7.29020000      16.87326000      -0.13166900      -0.10332200       0.38663500
Pt       1.40300000       2.43007000      16.87326000      -0.23288100      -0.33612700       0.79413300
Pt       8.41799000       4.86013000      16.87326000      -0.19167500       0.25548500       0.40279700
Pt       0.00000000       0.00000000      10.00000000      -0.04134400      -0.01280000      -0.05229800
Pt       9.82099000       4.05011000      14.58218000       0.12100400      -0.08262000      -0.31318800
Pt       2.80600000       0.00000000      10.00000000       0.06815700       0.00522800      -0.12509700
Pt       5.61200000       0.00000000      10.00000000      -0.01324100      -0.03542300      -0.22848800
Pt       1.40300000       2.43007000      10.00000000       0.00034000       0.01342300      -0.12918900
Pt       4.20900000       2.43007000      10.00000000      -0.01896700      -0.00108300      -0.14224700
Pt       7.01499000       2.43007000      10.00000000      -0.00023300      -0.04296200      -0.13889900
Pt       2.80600000       4.86013000      10.00000000       0.04649700       0.00789800      -0.13797900
Pt       5.61200000       4.86013000      10.00000000      -0.03800000      -0.00332400      -0.06167800
Pt       8.41799000       4.86013000      10.00000000      -0.00597700      -0.03743400      -0.06650500
Pt       4.20900000       7.29020000      10.00000000      -0.04074900      -0.02646900      -0.09886400
Pt       7.01499000       7.29020000      10.00000000       0.06104600      -0.02521200      -0.12273300
Pt       9.82099000       7.29020000      10.00000000      -0.00863800       0.06818300      -0.11077300
Pt       1.40300000       0.81002000      12.29109000      -0.00249800      -0.03555100       0.06115100
Pt       4.20900000       4.05011000      14.58218000      -0.12327400       0.01376600      -0.52064300
Pt       4.20900000       0.81002000      12.29109000       0.07447600       0.05332100       0.03348200
Pt       2.80600000       3.24009000      12.29109000      -0.03035200       0.00840400       0.18292900
Pt       5.61200000       3.24009000      12.29109000       0.03149500      -0.05224800       0.00687900
Pt       8.41799000       3.24009000      12.29109000      -0.01952100      -0.11901600       0.15558600
Pt       4.20900000       5.67015000      12.29109000       0.00361700       0.00852900       0.11683700
Pt       7.01499000       5.67015000      12.29109000      -0.01843900       0.01457100       0.11019700
Pt       9.82099000       5.67015000      12.29109000       0.02524900      -0.02359700       0.06836500
Pt       5.61200000       8.10022000      12.29109000       0.03255800      -0.01341200       0.02062300
Pt       8.41799000       8.10022000      12.29109000      -0.04997500       0.00583800       0.20089300
Pt      11.22399000       8.10022000      12.29109000       0.01094800       0.09685900       0.12081600
Pt       8.41799000       1.62004000      14.58218000      -0.00102900       0.20684900       0.01281000
Pt       2.80600000       1.62004000      14.58218000      -0.02958600       0.16459300      -0.09494100
Pt       5.61200000       1.62004000      14.58218000       0.02375100      -0.09653700      -0.72794700
Pt       7.01499000       0.81002000      12.29109000      -0.03884200      -0.01076400       0.02307300
Pt       7.01499000       4.05011000      14.58218000      -0.01483700       0.21366100      -0.01809600
60
Lattice="8.417993093 0.0 0.0 5.611995395 9.720261156 0.0 0.0 0.0 29.886262579" Properties=species:S:1:pos:R:3:forces:R:3 energy=-372.54817939 pbc="T T T"
C        8.41799000       7.29020000      18.49926000      -0.96346200       1.24571600      -2.88263600
C        4.20900000       0.81002000      18.27026000      -0.26238900      -0.37960800      -3.23030500
C        4.20900000       5.67015000      18.27026000       0.94356300      -1.44476000      -3.15823100
C       11.22399000       7.29020000      18.49926000      -1.17403800       2.17971200      -2.35845300
C        5.61200000       3.24009000      18.27026000       0.48056900      -0.18527900      -3.11475700
C        8.41799000       4.86013000      18.72826000       0.11756500      -1.13035400       0.66022900
O        4.20900000       0.81002000      19.42826000      -0.04225800      -0.16593600       2.99349500
O        8.41799000       7.29020000      19.65726000      -0.00542900       0.76017500       1.24096100
O        8.41799000       4.86013000      19.88626000      -0.00793800      -0.70168000      -0.32498000
O       11.22399000       7.29020000      19.65726000      -1.14372700       1.39075000       0.95936100
O        4.20900000       5.67015000      19.42826000       1.56687300      -1.76464300       2.85638300
O        5.61200000       3.24009000      19.42826000       0.14337500      -0.02656000       2.89871100
Pt       5.61200000       6.48017000      14.58218000       0.03881600       0.19933800      -0.01339700
Pt       8.41799000       6.48017000      14.58218000       0.17897500      -0.08598000      -0.37918700
Pt      12.62699000       8.91024000      14.58218000      -0.01778300      -0.08998800      -0.00629200
Pt       7.01499000       8.91024000      14.58218000       0.04079500       0.13650000      -0.26130600
Pt       9.82099000       8.91024000      14.58218000      -0.01422200      -0.10957500      -0.60065700
Pt       0.00000000       0.00000000      16.87326000       0.06073300       0.27618100      -0.25640000
Pt       2.80600000       0.00000000      16.87326000      -0.44453100       0.51001000       0.46113100
Pt       5.61200000       0.00000000      16.87326000       0.34265500       0.22674600       0.40251000
Pt       4.20900000       2.43007000      16.87326000      -0.32168200      -0.10813600       0.77430300
Pt       7.01499000       2.43007000      16.87326000       0.32878500      -0.33466500       0.47480400
Pt       2.80600000       4.86013000      16.87326000       0.12967900      -0.56100400       0.32012200
Pt       5.61200000       4.86013000      16.87326000      -0.20536700       0.13195900       0.71002500
Pt      11.22399000       6.48017000      14.58218000      -0.22302200       0.06430700      -0.63721900
Pt       4.20900000       7.29020000      16.87326000      -0.04544700       0.54253300       1.34651800
Pt       7.01499000       7.29020000      16.87326000       0.41477800       0.38699200       1.10833600
Pt       9.82099000       7.29020000      16.87326000       0.11974800      -0.14538900       2.24292800
Pt       1.40300000       2.43007000      16.87326000      -0.17107700      -0.25046400      -0.27978000
Pt       8.41799000       4.86013000      16.87326000       0.18357200      -0.59853100       0.54879400
Pt       0.00000000       0.00000000      10.00000000      -0.02174600      -0.00123900      -0.11537100
Pt       9.82099000       4.05011000      14.58218000      -0.05173500       0.14995500      -0.02289500
Pt       2.80600000       0.00000000      10.00000000       0.04449700       0.04273000      -0.14180500
Pt       5.61200000       0.00000000      10.00000000      -0.03642900       0.02237800      -0.10071400
Pt       1.40300000       2.43007000      10.00000000       0.02334500      -0.01579200      -0.07009800
Pt       4.20900000       2.43007000      10.00000000       0.04135000      -0.02592600      -0.24997000
Pt       7.01499000       2.43007000      10.00000000      -0.05418000       0.05432900      -0.14078300
Pt       2.80600000       4.86013000      10.00000000      -0.01249700      -0.02708500      -0.12691000