64
Lattice="11.224 0.0 0.0 -5.612 9.720269132 0.0 0.0 0.0 22.85918" Properties=species:S:1:pos:R:3:forces:R:3 energy=-370.69483683 pbc="T T T"
Pt      -5.61198000       9.72026000       8.00000000       0.00009200      -0.00005200      -0.02272100
Pt       0.00002000       9.72026000       8.00000000       0.00008800      -0.00004600      -0.02272900
Pt       2.80602000       9.72026000       8.00000000       0.00009800      -0.00004800      -0.02272800
Pt      -1.40298000       2.43006000       8.00000000       0.00009100      -0.00004700      -0.02271800
Pt       1.40302000       2.43006000       8.00000000       0.00009200      -0.00004900      -0.02271900
Pt       4.20902000       2.43006000       8.00000000       0.00008800      -0.00004300      -0.02271700
Pt       7.01502000       2.43006000       8.00000000       0.00009200      -0.00004100      -0.02271600
Pt      -2.80598000       4.86013000       8.00000000       0.00008700      -0.00007500      -0.02272800
Pt       0.00002000       4.86013000       8.00000000       0.00008800      -0.00008100      -0.02273800
Pt       2.80602000       4.86013000       8.00000000       0.00009500      -0.00008100      -0.02273800
Pt       5.61202000       4.86013000       8.00000000       0.00009300      -0.00007300      -0.02273100
Pt      -4.20898000       7.29019000       8.00000000       0.00008900      -0.00001000      -0.02274100
Pt      -1.40298000       7.29019000       8.00000000       0.00008200      -0.00001100      -0.02274900
Pt       1.40302000       7.29019000       8.00000000       0.00009400      -0.00001100      -0.02275700
Pt      -2.80598000       9.72026000       8.00000000       0.00008500      -0.00005000      -0.02272300
Pt       4.20902000       7.29019000       8.00000000       0.00009900      -0.00000900      -0.02274800
Pt       4.20904000       0.81000000      10.29651000      -0.00005800       0.00004000       0.02031300
Pt       7.01504000       0.81000000      10.29651000      -0.00006700       0.00003900       0.02031000
Pt       9.82104000       0.81000000      10.29651000      -0.00005700       0.00003600       0.02029900
Pt       0.00004000       3.24007000      10.29651000      -0.00005900       0.00004100       0.02029100
Pt       2.80604000       3.24007000      10.29651000      -0.00005500       0.00003400       0.02029000
Pt       5.61204000       3.24007000      10.29651000      -0.00006600       0.00003300       0.02029100
Pt       8.41804000       3.24007000      10.29651000      -0.00005600       0.00004000       0.02028800
Pt      -1.40296000       5.67014000      10.29651000      -0.00005800      -0.00001400       0.02033500
Pt       1.40304000       5.67014000      10.29651000      -0.00006200      -0.00001900       0.02033500
Pt       4.20904000       5.67014000      10.29651000      -0.00005600      -0.00001500       0.02032700
Pt       7.01504000       5.67014000      10.29651000      -0.00006000      -0.00001000       0.02032300
Pt      -2.80596000       8.10020000      10.29651000      -0.00005800       0.00008100       0.02031300
Pt       0.00004000       8.10020000      10.29651000      -0.00006600       0.00008200       0.02032400
Pt       1.40304000       0.81000000      10.29651000      -0.00005400       0.00003700       0.02030100
Pt       2.80604000       8.10020000      10.29651000      -0.00005400       0.00007900       0.02031300
Pt       5.61204000       8.10020000      10.29651000      -0.00005800       0.00007700       0.02030700
Pt      -0.00004000       1.62007000      12.56267000       0.00006000      -0.00007300      -0.02031000
Pt       5.61196000       1.62007000      12.56267000       0.00005000      -0.00008100      -0.02031000
Pt       8.41796000       1.62007000      12.56267000       0.00005400      -0.00007600      -0.02030600
Pt      -1.40304000       4.05013000      12.56267000       0.00006200       0.00001900      -0.02032300
Pt       1.40296000       4.05013000      12.56267000       0.00005700       0.00001400      -0.02032400
Pt       4.20896000       4.05013000      12.56267000       0.00006100       0.00000600      -0.02032400
Pt       7.01496000       4.05013000      12.56267000       0.00005500       0.00001200      -0.02032100
Pt      -2.80604000       6.48020000      12.56267000       0.00006500      -0.00003800      -0.02028200
Pt      -0.00004000       6.48020000      12.56267000       0.00005200      -0.00004000      -0.02028100
Pt       2.80596000       6.48020000      12.56267000       0.00006000      -0.00004300      -0.02028000
Pt       5.61196000       6.48020000      12.56267000       0.00005900      -0.00003900      -0.02028300
Pt      -4.20904000       8.91027000      12.56267000       0.00006300      -0.00004000      -0.02030500
Pt      -1.40304000       8.91027000      12.56267000       0.00006300      -0.00003200      -0.02030300
Pt       1.40296000       8.91027000      12.56267000       0.00004800      -0.00003200      -0.02029900
Pt       2.80596000       1.62007000      12.56267000       0.00007200      -0.00007800      -0.02031300
Pt       4.20896000       8.91027000      12.56267000       0.00006100      -0.00004000      -0.02030100
Pt       2.80598000       0.00001000      14.85918000      -0.00008400       0.00004900       0.02271800
Pt       5.61198000       0.00001000      14.85918000      -0.00009300       0.00005000       0.02271000
Pt       8.41798000       0.00001000      14.85918000      -0.00009300       0.00004900       0.02271900
Pt       9.82098000       2.43008000      14.85918000      -0.00009100       0.00001600       0.02274800
Pt       1.40298000       2.43008000      14.85918000      -0.00008900       0.00001700       0.02275200
Pt       4.20898000       2.43008000      14.85918000      -0.00008900       0.00001300       0.02274200
Pt       7.01498000       2.43008000      14.85918000      -0.00009400       0.00001100       0.02274700
Pt       8.41798000       4.86014000      14.85918000      -0.00008800       0.00007700       0.02272700
Pt      -0.00002000       4.86014000      14.85918000      -0.00009400       0.00007600       0.02272200
Pt       2.80598000       4.86014000      14.85918000      -0.00008700       0.00007400       0.02272600
Pt       5.61198000       4.86014000      14.85918000      -0.00009500       0.00007600       0.02272400
Pt       7.01498000       7.29021000      14.85918000      -0.00009100       0.00004100       0.02271400
Pt      -1.40302000       7.29021000      14.85918000      -0.00009000       0.00004300       0.02270800
Pt      11.22398000       0.00001000      14.85918000      -0.00009300       0.00004700       0.02272500
Pt       1.40298000       7.29021000      14.85918000      -0.00009300       0.00004400       0.02271000
Pt       4.20898000       7.29021000      14.85918000      -0.00008900       0.00004000       0.02271300
64
Lattice="11.224 0.0 0.0 -5.612 9.720269132 0.0 0.0 0.0 22.85898" Properties=species:S:1:pos:R:3:forces:R:3 energy=-370.69494783 pbc="T T T"
Pt      -5.61198000       9.72026000       8.00000000       0.00009600      -0.00005000      -0.01917400
Pt       0.00002000       9.72026000       8.00000000       0.00008600      -0.00004700      -0.01918300
Pt       2.80602000       9.72026000       8.00000000       0.00009800      -0.00004700      -0.01918400
Pt      -1.40298000       2.43006000       8.00000000       0.00009200      -0.00004300      -0.01917100
Pt       1.40302000       2.43006000       8.00000000       0.00009200      -0.00004700      -0.01917200
Pt       4.20902000       2.43006000       8.00000000       0.00008600      -0.00004100      -0.01917100
Pt       7.01502000       2.43006000       8.00000000       0.00009200      -0.00003600      -0.01917100
Pt      -2.80598000       4.86013000       8.00000000       0.00008700      -0.00007200      -0.01917500
Pt       0.00002000       4.86013000       8.00000000       0.00008800      -0.00007900      -0.01918700
Pt       2.80602000       4.86013000       8.00000000       0.00009400      -0.00008000      -0.01918800
Pt       5.61202000       4.86013000       8.00000000       0.00009500      -0.00007200      -0.01918100
Pt      -4.20898000       7.29019000       8.00000000       0.00009200      -0.00000900      -0.01919300
Pt      -1.40298000       7.29019000       8.00000000       0.00008000      -0.00001000      -0.01920100
Pt       1.40302000       7.29019000       8.00000000       0.00009200      -0.00001200      -0.01921100
Pt      -2.80598000       9.72026000       8.00000000       0.00008400      -0.00005000      -0.01917400
Pt       4.20902000       7.29019000       8.00000000       0.00009900      -0.00000900      -0.01920500
Pt       4.20904000       0.81000000      10.29702000      -0.00005900       0.00004200       0.01061100
Pt       7.01504000       0.81000000      10.29702000      -0.00006400       0.00004200       0.01061200
Pt       9.82104000       0.81000000      10.29702000      -0.00005700       0.00004000       0.01060200
Pt       0.00004000       3.24007000      10.29702000      -0.00006000       0.00004300       0.01058600
Pt       2.80604000       3.24007000      10.29702000      -0.00005500       0.00003800       0.01058500
Pt       5.61204000       3.24007000      10.29702000      -0.00006300       0.00004000       0.01058900
Pt       8.41804000       3.24007000      10.29702000      -0.00005900       0.00004500       0.01058600
Pt      -1.40296000       5.67014000      10.29702000      -0.00006100      -0.00001000       0.01062600
Pt       1.40304000       5.67014000      10.29702000      -0.00006100      -0.00001400       0.01062800
Pt       4.20904000       5.67014000      10.29702000      -0.00005500      -0.00001200       0.01062300
Pt       7.01504000       5.67014000      10.29702000      -0.00005900      -0.00000900       0.01061800
Pt      -2.80596000       8.10020000      10.29702000      -0.00006000       0.00007900       0.01060800
Pt       0.00004000       8.10020000      10.29702000      -0.00006500       0.00008100       0.01062000
Pt       1.40304000       0.81000000      10.29702000      -0.00005500       0.00003800       0.01059800
Pt       2.80604000       8.10020000      10.29702000      -0.00005500       0.00007900       0.01061300
Pt       5.61204000       8.10020000      10.29702000      -0.00005600       0.00007700       0.01060700
Pt      -0.00004000       1.62007000      12.56196000       0.00005900      -0.00007300      -0.01062100
Pt       5.61196000       1.62007000      12.56196000       0.00005300      -0.00007700      -0.01062200
Pt       8.41796000       1.62007000      12.56196000       0.00005500      -0.00007500      -0.01062100
Pt      -1.40304000       4.05013000      12.56196000       0.00006200       0.00000800      -0.01060200
Pt       1.40296000       4.05013000      12.56196000       0.00005800       0.00000600      -0.01059800
Pt       4.20896000       4.05013000      12.56196000       0.00006200       0.00000100      -0.01059900
Pt       7.01496000       4.05013000      12.56196000       0.00005400       0.00000400      -0.01060400
Pt      -2.80604000       6.48020000      12.56196000       0.00006100      -0.00003800      -0.01058500
Pt      -0.00004000       6.48020000      12.56196000       0.00005500      -0.00003900      -0.01057900
Pt       2.80596000       6.48020000      12.56196000       0.00006200      -0.00004100      -0.01057500
Pt       5.61196000       6.48020000      12.56196000       0.00005800      -0.00003800      -0.01058000
Pt      -4.20904000       8.91027000      12.56196000       0.00006000      -0.00004000      -0.01060400
Pt      -1.40304000       8.91027000      12.56196000       0.00006200      -0.00003200      -0.01060300
Pt       1.40296000       8.91027000      12.56196000       0.00005200      -0.00003300      -0.01059800
Pt       2.80596000       1.62007000      12.56196000       0.00006900      -0.00007600      -0.01062300
Pt       4.20896000       8.91027000      12.56196000       0.00006200      -0.00004100      -0.01059800
Pt       2.80598000       0.00001000      14.85898000      -0.00008700       0.00002100       0.01918000
Pt       5.61198000       0.00001000      14.85898000      -0.00009100       0.00001900       0.01917200
Pt       8.41798000       0.00001000      14.85898000      -0.00009100       0.00001600       0.01917700
Pt       9.82098000       2.43007000      14.85898000      -0.00008800       0.00006700       0.01920100
Pt       1.40298000       2.43007000      14.85898000      -0.00009000       0.00007000       0.01920300
Pt       4.20898000       2.43007000      14.85898000      -0.00009100       0.00006800       0.01919600
Pt       7.01498000       2.43007000      14.85898000      -0.00009400       0.00006300       0.01920000
Pt       8.41798000       4.86014000      14.85898000      -0.00008700       0.00004300       0.01917400
Pt      -0.00002000       4.86014000      14.85898000      -0.00008900       0.00004300       0.01916700
Pt       2.80598000       4.86014000      14.85898000      -0.00008900       0.00004400       0.01916700
Pt       5.61198000       4.86014000      14.85898000      -0.00009800       0.00004500       0.01916700
Pt       7.01498000       7.29021000      14.85898000      -0.00009500       0.00004400       0.01916800
Pt      -1.40302000       7.29021000      14.85898000      -0.00008700       0.00004500       0.01916500
Pt      11.22398000       0.00001000      14.85898000      -0.00009400       0.00001700       0.01918200
Pt       1.40298000       7.29021000      14.85898000      -0.00009000       0.00004300       0.01916100
Pt       4.20898000       7.29021000      14.85898000      -0.00009200       0.00004200       0.01916100
64
Lattice="11.224 0.0 0.0 -5.612 9.720269132 0.0 0.0 0.0 22.85832" Properties=species:S:1:pos:R:3:forces:R:3 energy=-370.69161681 pbc="T T T"
Pt      -5.61198000       9.72026000       8.00000000       0.00005500      -0.00003100       0.00013700
Pt       0.00002000       9.72026000       8.00000000       0.00006400      -0.00003200       0.00014800
Pt       2.80602000       9.72026000       8.00000000       0.00005600      -0.00003500       0.00015400
Pt      -1.40298000       2.43006000       8.00000000       0.00005700      -0.00006200       0.00015700
Pt       1.40302000       2.43006000       8.00000000       0.00006200      -0.00005600       0.00015300
Pt       4.20902000       2.43006000       8.00000000       0.00006100      -0.00005800       0.00015900
Pt       7.01502000       2.43006000       8.00000000       0.00005800      -0.00006300       0.00016300
Pt      -2.80598000       4.86013000       8.00000000       0.00006000      -0.00006300       0.00014900
Pt       0.00002000       4.86013000       8.00000000       0.00006400      -0.00005700       0.00015000
Pt       2.80602000       4.86013000       8.00000000       0.00006000      -0.00005700       0.00015500
Pt       5.61202000       4.86013000       8.00000000       0.00005500      -0.00006400       0.00015500
Pt      -4.20898000       7.29020000       8.00000000       0.00006000      -0.00007800       0.00011500
Pt      -1.40298000       7.29020000       8.00000000       0.00006500      -0.00007800       0.00011800
Pt       1.40302000       7.29020000       8.00000000       0.00006300      -0.00007700       0.00013000
Pt      -2.80598000       9.72026000       8.00000000       0.00006300      -0.00002900       0.00013900
Pt       4.20902000       7.29020000       8.00000000       0.00005000      -0.00007900       0.00012400
Pt       4.20902000       0.80999000      10.29987000      -0.00000900       0.00006800      -0.05123700
Pt       7.01502000       0.80999000      10.29987000      -0.00001600       0.00006500      -0.05123400
Pt       9.82102000       0.80999000      10.29987000      -0.00002800       0.00006600      -0.05124000
Pt       0.00002000       3.24006000      10.29987000      -0.00001400       0.00006800      -0.05126100
Pt       2.80602000       3.24006000      10.29987000      -0.00001200       0.00007000      -0.05125800
Pt       5.61202000       3.24006000      10.29987000      -0.00001600       0.00006100      -0.05125700
Pt       8.41802000       3.24006000      10.29987000      -0.00002000       0.00005800      -0.05125800
Pt      -1.40298000       5.67013000      10.29987000      -0.00001100       0.00001400      -0.05125100
Pt       1.40302000       5.67013000      10.29987000      -0.00000500       0.00002200      -0.05124300
Pt       4.20902000       5.67013000      10.29987000      -0.00002500       0.00001700      -0.05124100
Pt       7.01502000       5.67013000      10.29987000      -0.00002200       0.00001000      -0.05124400
Pt      -2.80598000       8.10019000      10.29987000      -0.00000700       0.00010300      -0.05122800
Pt       0.00002000       8.10019000      10.29987000      -0.00000800       0.00010400      -0.05122200
Pt       1.40302000       0.80999000      10.29987000      -0.00001000       0.00007300      -0.05124300
Pt       2.80602000       8.10019000      10.29987000      -0.00002100       0.00009500      -0.05121900
Pt       5.61202000       8.10019000      10.29987000      -0.00002700       0.00009400      -0.05122900
Pt      -0.00002000       1.62008000      12.55845000       0.00001200      -0.00009400       0.05123500
Pt       5.61198000       1.62008000      12.55845000       0.00001800      -0.00009600       0.05122800
Pt       8.41798000       1.62008000      12.55845000       0.00000800      -0.00010000       0.05122900
Pt      -1.40302000       4.05014000      12.55845000       0.00001400      -0.00003100       0.05125100
Pt       1.40298000       4.05014000      12.55845000       0.00002600      -0.00001900       0.05125000
Pt       4.20898000       4.05014000      12.55845000       0.00001300      -0.00002200       0.05125300
Pt       7.01498000       4.05014000      12.55845000       0.00001000      -0.00003100       0.05125200
Pt      -2.80602000       6.48021000      12.55845000       0.00001300      -0.00007100       0.05127300
Pt      -0.00002000       6.48021000      12.55845000       0.00003000      -0.00006300       0.05127000
Pt       2.80598000       6.48021000      12.55845000       0.00001800      -0.00006700       0.05126400
Pt       5.61198000       6.48021000      12.55845000       0.00000200      -0.00007500       0.05127200
Pt      -4.20902000       8.91028000      12.55845000       0.00001700      -0.00005400       0.05125800
Pt      -1.40302000       8.91028000      12.55845000       0.00002500      -0.00005000       0.05124700
Pt       1.40298000       8.91028000      12.55845000       0.00002000      -0.00005700       0.05124700
Pt       2.80598000       1.62008000      12.55845000       0.00002400      -0.00009000       0.05123200
Pt       4.20898000       8.91028000      12.55845000       0.00000100      -0.00006300       0.05125300
Pt       2.80598000       0.00001000      14.85832000      -0.00005600       0.00004100      -0.00014900
Pt       5.61198000       0.00001000      14.85832000      -0.00005600       0.00004100      -0.00015900
Pt       8.41798000       0.00001000      14.85832000      -0.00006100       0.00003700      -0.00015800
Pt       9.82098000       2.43007000      14.85832000      -0.00006300       0.00007300      -0.00013600
Pt       1.40298000       2.43007000      14.85832000      -0.00005800       0.00007900      -0.00013700
Pt       4.20898000       2.43007000      14.85832000      -0.00005500       0.00007900      -0.00014100
Pt       7.01498000       2.43007000      14.85832000      -0.00006200       0.00007300      -0.00014000
Pt       8.41798000       4.86014000      14.85832000      -0.00006000       0.00004900      -0.00015500
Pt      -0.00002000       4.86014000      14.85832000      -0.00005500       0.00005500      -0.00016200
Pt       2.80598000       4.86014000      14.85832000      -0.00005700       0.00005700      -0.00017200
Pt       5.61198000       4.86014000      14.85832000      -0.00006600       0.00004900      -0.00016000
Pt       7.01498000       7.29021000      14.85832000      -0.00006400       0.00006300      -0.00014800
Pt      -1.40302000       7.29021000      14.85832000      -0.00005500       0.00006200      -0.00015500
Pt      11.22398000       0.00001000      14.85832000      -0.00006600       0.00003700      -0.00015000
Pt       1.40298000       7.29021000      14.85832000      -0.00005400       0.00006200      -0.00016800
Pt       4.20898000       7.29021000      14.85832000      -0.00006500       0.00006200      -0.00016800
64
Lattice="11.224 0.0 0.0 -5.612 9.720269132 0.0 0.0 0.0 22.85896" Properties=species:S:1:pos:R:3:forces:R:3 energy=-370.6949523 pbc="T T T"
Pt      -5.61198000       9.72026000       8.00000000       0.00010000      -0.00004800      -0.01843200
Pt       0.00002000       9.72026000       8.00000000       0.00008100      -0.00005100      -0.01842400
Pt       2.80602000       9.72026000       8.00000000       0.00008900      -0.00004700      -0.01843400
Pt      -1.40298000       2.43006000       8.00000000       0.00009500      -0.00003100      -0.01842300
Pt       1.40302000       2.43006000       8.00000000       0.00009000      -0.00004000      -0.01842200
Pt       4.20902000       2.43006000       8.00000000       0.00009000      -0.00004600      -0.01842100
Pt       7.01502000       2.43006000       8.00000000       0.00008800      -0.00003800      -0.01842300
Pt      -2.80598000       4.86013000       8.00000000       0.00009800      -0.00006900      -0.01842800
Pt       0.00002000       4.86013000       8.00000000       0.00008500      -0.00007200      -0.01842500
Pt       2.80602000       4.86013000       8.00000000       0.00008500      -0.00007900      -0.01843800
Pt       5.61202000       4.86013000       8.00000000       0.00009500      -0.00007400      -0.01843600
Pt      -4.20898000       7.29019000       8.00000000       0.00009900      -0.00001100      -0.01844800
Pt      -1.40298000       7.29019000       8.00000000       0.00009000      -0.00001300      -0.01843900
Pt       1.40302000       7.29019000       8.00000000       0.00007800      -0.00001600      -0.01845100
Pt      -2.80598000       9.72026000       8.00000000       0.00009400      -0.00005300      -0.01842200
Pt       4.20902000       7.29019000       8.00000000       0.00009700      -0.00001300      -0.01845800
Pt       4.20904000       0.81000000      10.29713000      -0.00005500       0.00003300       0.00864400
Pt       7.01504000       0.81000000      10.29713000      -0.00007400       0.00003800       0.00864800
Pt       9.82104000       0.81000000      10.29713000      -0.00005700       0.00004400       0.00864300
Pt       0.00004000       3.24007000      10.29713000      -0.00006000       0.00005500       0.00861700
Pt       2.80604000       3.24007000      10.29713000      -0.00006000       0.00003700       0.00862100
Pt       5.61204000       3.24007000      10.29713000      -0.00006300       0.00003300       0.00862100
Pt       8.41804000       3.24007000      10.29713000      -0.00005400       0.00004900       0.00862000
Pt      -1.40296000       5.67014000      10.29713000      -0.00005100      -0.00000500       0.00865200
Pt       1.40304000       5.67014000      10.29713000      -0.00007500      -0.00001200       0.00865800
Pt       4.20904000       5.67014000      10.29713000      -0.00005900      -0.00001200       0.00865500
Pt       7.01504000       5.67014000      10.29713000      -0.00005000      -0.00000700       0.00865100
Pt      -2.80596000       8.10020000      10.29713000      -0.00004500       0.00007700       0.00864200
Pt       0.00004000       8.10020000      10.29713000      -0.00007100       0.00007600       0.00864900
Pt       1.40304000       0.81000000      10.29713000      -0.00005000       0.00004100       0.00863800
Pt       2.80604000       8.10020000      10.29713000      -0.00006600       0.00007500       0.00865100
Pt       5.61204000       8.10020000      10.29713000      -0.00005400       0.00007600       0.00864100
Pt      -0.00004000       1.62007000      12.56183000       0.00005900      -0.00007500      -0.00865900
Pt       5.61196000       1.62007000      12.56183000       0.00005500      -0.00008500      -0.00866400
Pt       8.41796000       1.62007000      12.56183000       0.00005200      -0.00007900      -0.00865500
Pt      -1.40304000       4.05013000      12.56183000       0.00006000       0.00001200      -0.00864700
Pt       1.40296000       4.05013000      12.56183000       0.00005600       0.00000800      -0.00864400
Pt       4.20896000       4.05013000      12.56183000       0.00005900      -0.00000300      -0.00864100
Pt       7.01496000       4.05013000      12.56183000       0.00006000       0.00000100      -0.00864000
Pt      -2.80604000       6.48020000      12.56183000       0.00006800      -0.00003600      -0.00862800
Pt      -0.00004000       6.48020000      12.56183000       0.00005400      -0.00003400      -0.00862900
Pt       2.80596000       6.48020000      12.56183000       0.00005300      -0.00003700      -0.00861700
Pt       5.61196000       6.48020000      12.56183000       0.00006100      -0.00003700      -0.00861900
Pt      -4.20904000       8.91027000      12.56183000       0.00006600      -0.00003700      -0.00864000
Pt      -1.40304000       8.91027000      12.56183000       0.00006600      -0.00003400      -0.00864800
Pt       1.40296000       8.91027000      12.56183000       0.00004900      -0.00003300      -0.00863800
Pt       2.80596000       1.62007000      12.56183000       0.00006900      -0.00008100      -0.00866400
Pt       4.20896000       8.91027000      12.56183000       0.00005600      -0.00003600      -0.00863100
Pt       2.80598000       0.00001000      14.85896000      -0.00008900       0.00002100       0.01843300
Pt       5.61198000       0.00001000      14.85896000      -0.00008900       0.00002000       0.01842400
Pt       8.41798000       0.00001000      14.85896000      -0.00009200       0.00001800       0.01843000
Pt       9.82098000       2.43007000      14.85896000      -0.00009100       0.00006100       0.01845600
Pt       1.40298000       2.43007000      14.85896000      -0.00009000       0.00006400       0.01845900
Pt       4.20898000       2.43007000      14.85896000      -0.00009000       0.00006200       0.01845200
Pt       7.01498000       2.43007000      14.85896000      -0.00009200       0.00006000       0.01845300
Pt       8.41798000       4.86014000      14.85896000      -0.00009000       0.00004200       0.01842600
Pt      -0.00002000       4.86014000      14.85896000      -0.00008800       0.00004300       0.01842700
Pt       2.80598000       4.86014000      14.85896000      -0.00009100       0.00004500       0.01842700
Pt       5.61198000       4.86014000      14.85896000      -0.00009300       0.00004200       0.01842800
Pt       7.01498000       7.29021000      14.85896000      -0.00009200       0.00004800       0.01842500
Pt      -1.40302000       7.29021000      14.85896000      -0.00008800       0.00004800       0.01841900
Pt      11.22398000       0.00001000      14.85896000      -0.00009400       0.00001900       0.01843700
Pt       1.40298000       7.29021000      14.85896000      -0.00008800       0.00004800       0.01841800
Pt       4.20898000       7.29021000      14.85896000      -0.00009400       0.00004900       0.01842400
64
Lattice="11.224 0.0 0.0 -5.612 9.720269132 0.0 0.0 0.0 22.8587" Properties=species:S:1:pos:R:3:forces:R:3 energy=-370.69375146 pbc="T T T"
Pt      -5.61198000       9.72026000       8.00000000       0.00007400      -0.00005900      -0.00818800
Pt       0.00002000       9.72026000       8.00000000       0.00008100      -0.00006000      -0.00818300
Pt       2.80602000       9.72026000       8.00000000       0.00006900      -0.00006300      -0.00817900
Pt      -1.40298000       2.43006000       8.00000000       0.00007300      -0.00004400      -0.00820600
Pt       1.40302000       2.43006000       8.00000000       0.00008100      -0.00003800      -0.00819800
Pt       4.20902000       2.43006000       8.00000000       0.00007600      -0.00003600      -0.00819800
Pt       7.01502000       2.43006000       8.00000000       0.00007100      -0.00004400      -0.00819600
Pt      -2.80598000       4.86013000       8.00000000       0.00007300      -0.00008000      -0.00819000
Pt       0.00002000       4.86013000       8.00000000       0.00008200      -0.00007500      -0.00819200
Pt       2.80602000       4.86013000       8.00000000       0.00007800      -0.00007900      -0.00818100
Pt       5.61202000       4.86013000       8.00000000       0.00006900      -0.00008300      -0.00818200
Pt      -4.20898000       7.29019000       8.00000000       0.00007400      -0.00002800      -0.00818800
Pt      -1.40298000       7.29019000       8.00000000       0.00008200      -0.00002600      -0.00818600
Pt       1.40302000       7.29019000       8.00000000       0.00007700      -0.00002500      -0.00817700
Pt      -2.80598000       9.72026000       8.00000000       0.00007700      -0.00005600      -0.00818900
Pt       4.20902000       7.29019000       8.00000000       0.00006800      -0.00003000      -0.00818200
Pt       4.20903000       0.81000000      10.29865000      -0.00003600       0.00000800      -0.02840100
Pt       7.01503000       0.81000000      10.29865000      -0.00003700       0.00000600      -0.02840000
Pt       9.82103000       0.81000000      10.29865000      -0.00004300       0.00000500      -0.02840000
Pt       0.00003000       3.24006000      10.29865000      -0.00003600       0.00009700      -0.02839400
Pt       2.80603000       3.24006000      10.29865000      -0.00003400       0.00010100      -0.02839600
Pt       5.61203000       3.24006000      10.29865000      -0.00003900       0.00010000      -0.02839500