44
Lattice="5.611995395 0.0 0.0 5.611995395 9.720261156 0.0 0.0 0.0 29.657262579" Properties=species:S:1:pos:R:3:forces:R:3 energy=-276.29436086 pbc="T T T"
C        8.41799000       7.29020000      18.49926000       0.43534200       0.45846200      -2.26787500
C        1.40300000       0.00000000      18.49926000      -0.25663800       0.50975400      -2.79034200
C        2.80600000       3.24009000      18.27026000       1.23386700      -1.71097600      -2.76818700
C        5.61200000       3.24009000      18.27026000      -1.27561600      -2.02286400      -2.69770700
C        5.61200000       6.48017000      18.27026000      -1.36063200       1.89856900      -2.65693900
C        7.01499000       4.86013000      18.49926000       2.00831200       1.67954400      -1.07764500
O        2.80600000       3.24009000      19.42826000       1.62581800      -1.86911900       2.67530900
O        5.61200000       3.24009000      19.42826000      -1.58124800      -1.78268000       2.70652200
O        8.41799000       7.29020000      19.65726000       0.11260600      -0.05229000       0.98919000
O        5.61200000       6.48017000      19.42826000      -1.66507800       1.80083900       2.65183100
O        1.40300000       0.00000000      19.65726000      -0.05186000       0.06324300       1.31092100
O        7.01499000       4.86013000      19.65726000       1.05344400       1.24256700       0.22054300
Pt       9.82099000       8.91024000      14.58218000       0.01722700       0.23884800       0.02174900
Pt       7.01499000       7.29020000      16.87326000       0.33933600       0.17849000       1.05988500
Pt       4.20900000       7.29020000      16.87326000      -0.40706000      -0.00297300       1.58277200
Pt       2.80600000       4.86013000      16.87326000      -0.55609500      -0.10956100       1.04637000
Pt       4.20900000       2.43007000      16.87326000      -0.00434100      -0.28708400       0.93514900
Pt       1.40300000       2.43007000      16.87326000       0.02013800      -0.56203000       0.30517600
Pt       2.80600000       0.00000000      16.87326000      -0.38735000       0.12821200       0.95883200
Pt       0.00000000       0.00000000      16.87326000       0.49271000       0.00756700       0.96693300
Pt       7.01499000       8.91024000      14.58218000       0.00446500      -0.16276800      -0.72053100
Pt       5.61200000       4.86013000      16.87326000       0.18337400       0.06385600       0.90880300
Pt       0.00000000       0.00000000      10.00000000       0.00266800       0.00066300      -0.19804500
Pt       4.20900000       4.05011000      14.58218000       0.04487600       0.41965500      -0.31230000
Pt       2.80600000       0.00000000      10.00000000       0.00691500       0.00698900      -0.17700400
Pt       1.40300000       2.43007000      10.00000000       0.01221700      -0.05071500      -0.21515000
Pt       4.20900000       2.43007000      10.00000000      -0.00275000       0.02235300      -0.11206600
Pt       2.80600000       4.86013000      10.00000000      -0.00846700      -0.03149400      -0.15429200
Pt       5.61200000       4.86013000      10.00000000       0.01326000       0.01133400      -0.11217100
Pt       4.20900000       7.29020000      10.00000000      -0.00765800       0.03193000      -0.06775400
Pt       7.01499000       7.29020000      10.00000000       0.00291000      -0.02481800      -0.12313600
Pt       1.40300000       0.81002000      12.29109000      -0.01255200      -0.01164900      -0.01956500
Pt       8.41799000       6.48017000      14.58218000       0.02129400      -0.14218500      -0.54055500
Pt       4.20900000       0.81002000      12.29109000       0.00271300      -0.07274400       0.04446200
Pt       5.61200000       3.24009000      12.29109000       0.05053900      -0.04370600       0.11925100
Pt       4.20900000       5.67015000      12.29109000      -0.01647400      -0.01726600       0.14113000
Pt       7.01499000       5.67015000      12.29109000       0.01829200      -0.04906800       0.09884200
Pt       5.61200000       8.10022000      12.29109000       0.03607500       0.05808100       0.14636900
Pt       8.41799000       8.10022000      12.29109000      -0.04837700       0.04560600       0.15522300
Pt       5.61200000       1.62004000      14.58218000      -0.00309400       0.07503100      -0.35873500
Pt       2.80600000       1.62004000      14.58218000       0.00048700       0.08735400      -0.34410900
Pt       7.01499000       4.05011000      14.58218000      -0.06010100      -0.08004500      -1.13415500
Pt       2.80600000       3.24009000      12.29109000      -0.00889200      -0.04809700       0.12596100
Pt       5.61200000       6.48017000      14.58218000      -0.02460200       0.10518700      -0.32296000
44
Lattice="5.611995395 0.0 0.0 5.611995395 9.720261156 0.0 0.0 0.0 29.657262579" Properties=species:S:1:pos:R:3:forces:R:3 energy=-276.49847689 pbc="T T T"
C        5.61200000       1.62004000      18.27026000      -1.36988000       2.22160900      -3.13084300
C        4.20900000       4.86013000      18.49926000      -0.01242600      -0.06611900      -2.59113900
C        7.01499000       4.86013000      18.49926000       0.01305100      -0.04873500      -2.59833500
C        1.40300000       0.00000000      18.49926000       2.27737300       2.18758000      -1.19247300
C        5.61200000       8.10022000      18.27026000      -1.15149300      -1.95531300      -2.75015900
C        8.41799000       8.10022000      18.27026000       1.11228300      -1.61812700      -2.84093900
O        7.01499000       4.86013000      19.65726000      -0.00129700       0.00106400       1.05480900
O        1.40300000       0.00000000      19.65726000       1.08425500       1.31979900       0.30291700
O        5.61200000       1.62004000      19.42826000      -1.67818300       1.88507200       2.92088700
O        5.61200000       8.10022000      19.42826000      -1.59723100      -1.79238200       2.75008700
O        4.20900000       4.86013000      19.65726000       0.00084300       0.00267300       1.04602800
O        8.41799000       8.10022000      19.42826000       1.65080300      -1.88797600       2.71477700
Pt       9.82099000       8.91024000      14.58218000       0.06382600       0.38761500      -0.34779200
Pt       7.01499000       7.29020000      16.87326000      -0.00733000      -0.22678000       0.25457600
Pt       4.20900000       7.29020000      16.87326000       0.03041500       0.32819600       0.71507400
Pt       2.80600000       4.86013000      16.87326000      -0.02036300      -0.49416900       2.29601000
Pt       4.20900000       2.43007000      16.87326000       0.09977400      -0.41527000       0.41594100
Pt       1.40300000       2.43007000      16.87326000      -0.05863400      -0.08702800       0.32976800
Pt       2.80600000       0.00000000      16.87326000      -0.53074000       0.37780400       1.27933500
Pt       0.00000000       0.00000000      16.87326000       0.07699200       0.16314000       0.87551200
Pt       7.01499000       8.91024000      14.58218000      -0.08311300      -0.06069400      -1.16090200
Pt       5.61200000       4.86013000      16.87326000       0.03817200      -0.30661200       2.20680200
Pt       0.00000000       0.00000000      10.00000000      -0.00394500       0.00340500      -0.14244500
Pt       4.20900000       4.05011000      14.58218000      -0.01085600       0.14723800      -0.35330100
Pt       2.80600000       0.00000000      10.00000000      -0.00483500       0.02611900      -0.09670100
Pt       1.40300000       2.43007000      10.00000000      -0.00508700      -0.01493600      -0.13086100
Pt       4.20900000       2.43007000      10.00000000       0.00862000       0.00219800      -0.15120200
Pt       2.80600000       4.86013000      10.00000000       0.01751500       0.01170800      -0.20976200
Pt       5.61200000       4.86013000      10.00000000      -0.01242100      -0.01345700      -0.20349200
Pt       4.20900000       7.29020000      10.00000000       0.00871400       0.00415200      -0.08484100
Pt       7.01499000       7.29020000      10.00000000       0.00535300      -0.04414700      -0.15860800
Pt       1.40300000       0.81002000      12.29109000      -0.03365800       0.00312100       0.12675400
Pt       8.41799000       6.48017000      14.58218000      -0.02623500       0.07724100      -0.39319500
Pt       4.20900000       0.81002000      12.29109000       0.00781800       0.01985800       0.14818000
Pt       5.61200000       3.24009000      12.29109000       0.00427800       0.06007900       0.10923300
Pt       4.20900000       5.67015000      12.29109000      -0.01151600      -0.07632100       0.05676600
Pt       7.01499000       5.67015000      12.29109000       0.00062600      -0.07321600       0.02357100
Pt       5.61200000       8.10022000      12.29109000       0.05470300       0.00502300       0.12707400
Pt       8.41799000       8.10022000      12.29109000       0.00535900      -0.04676400       0.14832500
Pt       5.61200000       1.62004000      14.58218000      -0.01216000      -0.13429500      -0.60266800
Pt       2.80600000       1.62004000      14.58218000       0.04790000      -0.07025000      -0.11260100
Pt       7.01499000       4.05011000      14.58218000       0.02124100       0.14246100      -0.36770400
Pt       2.80600000       3.24009000      12.29109000      -0.01179100       0.00867100       0.13204400
Pt       5.61200000       6.48017000      14.58218000       0.01328100       0.04676500      -0.41450700
44
Lattice="5.611995395 0.0 0.0 5.611995395 9.720261156 0.0 0.0 0.0 29.886262579" Properties=species:S:1:pos:R:3:forces:R:3 energy=-278.56900917 pbc="T T T"
C        4.20900000       0.00000000      18.49926000       0.00000000       0.06777900      -3.16182600
C        1.40300000       0.00000000      18.49926000       0.00000000       0.09744000      -3.00664900
C        4.20900000       4.86013000      18.49926000       0.00000000       0.06777900      -3.16182600
C        1.40300000       2.43007000      18.72826000       0.00000000      -0.00387900       0.49696100
C        7.01499000       4.86013000      18.49926000       0.00000000       0.09744000      -3.00664900
C        7.01499000       7.29020000      18.72826000       0.00000000      -0.00387900       0.49696100
O        4.20900000       4.86013000      19.65726000       0.00000000      -0.01864100       1.50130800
O        1.40300000       2.43007000      19.88626000       0.00000000      -0.00774300      -0.13481800
O        4.20900000       0.00000000      19.65726000       0.00000000      -0.01864100       1.50130800
O        7.01499000       4.86013000      19.65726000       0.00000000      -0.01691300       1.13839000
O        1.40300000       0.00000000      19.65726000       0.00000000      -0.01691300       1.13839000
O        7.01499000       7.29020000      19.88626000       0.00000000      -0.00774300      -0.13481800
Pt       9.82099000       8.91024000      14.58218000      -0.00000000       0.29528500      -0.24720300
Pt       7.01499000       7.29020000      16.87326000       0.00000000       0.11226800       0.41476800
Pt       4.20900000       7.29020000      16.87326000      -0.00000000       0.03724400      -0.38811500
Pt       2.80600000       4.86013000      16.87326000       0.26847200      -0.29445000       2.27318300
Pt       4.20900000       2.43007000      16.87326000      -0.00000000       0.03724400      -0.38811500
Pt       1.40300000       2.43007000      16.87326000       0.00000000       0.11226800       0.41476800
Pt       2.80600000       0.00000000      16.87326000       0.26847200      -0.29445000       2.27318300
Pt       0.00000000       0.00000000      16.87326000      -0.26847200      -0.29445000       2.27318300
Pt       7.01499000       8.91024000      14.58218000       0.00000000      -0.12584200      -0.28426000
Pt       5.61200000       4.86013000      16.87326000      -0.26847200      -0.29445000       2.27318300
Pt       0.00000000       0.00000000      10.00000000       0.04350700       0.00462900      -0.14739000
Pt       4.20900000       4.05011000      14.58218000      -0.00000000       0.29528500      -0.24720300
Pt       2.80600000       0.00000000      10.00000000      -0.04350700       0.00462900      -0.14739000
Pt       1.40300000       2.43007000      10.00000000       0.00000000       0.02189800      -0.22602900
Pt       4.20900000       2.43007000      10.00000000       0.00000000      -0.03526900      -0.15043600
Pt       2.80600000       4.86013000      10.00000000      -0.04350700       0.00462900      -0.14739000
Pt       5.61200000       4.86013000      10.00000000       0.04350700       0.00462900      -0.14739000
Pt       4.20900000       7.29020000      10.00000000       0.00000000      -0.03526900      -0.15043600
Pt       7.01499000       7.29020000      10.00000000       0.00000000       0.02189800      -0.22602900
Pt       1.40300000       0.81002000      12.29109000       0.00000000       0.09349800       0.21802700
Pt       8.41799000       6.48017000      14.58218000      -0.15094500       0.09876100      -0.36313200
Pt       4.20900000       0.81002000      12.29109000      -0.00000000      -0.04631200       0.15690600
Pt       5.61200000       3.24009000      12.29109000       0.01290100      -0.04434600       0.07382800
Pt       4.20900000       5.67015000      12.29109000      -0.00000000      -0.04631200       0.15690600
Pt       7.01499000       5.67015000      12.29109000       0.00000000       0.09349800       0.21802700
Pt       5.61200000       8.10022000      12.29109000       0.01290100      -0.04434600       0.07382800
Pt       8.41799000       8.10022000      12.29109000      -0.01290100      -0.04434600       0.07382800
Pt       5.61200000       1.62004000      14.58218000       0.15094500       0.09876100      -0.36313200
Pt       2.80600000       1.62004000      14.58218000      -0.15094500       0.09876100      -0.36313200
Pt       7.01499000       4.05011000      14.58218000       0.00000000      -0.12584200      -0.28426000
Pt       2.80600000       3.24009000      12.29109000      -0.01290100      -0.04434600       0.07382800
Pt       5.61200000       6.48017000      14.58218000       0.15094500       0.09876100      -0.36313200
44
Lattice="5.611995395 0.0 0.0 5.611995395 9.720261156 0.0 0.0 0.0 29.886262579" Properties=species:S:1:pos:R:3:forces:R:3 energy=-277.64391926 pbc="T T T"
C        4.20900000       2.43007000      18.72826000       0.01716000       1.18763400       0.53105700
C        4.20900000       0.00000000      18.49926000       0.16444800      -0.41345600      -2.70358600
C        8.41799000       7.29020000      18.49926000       4.14753500      -0.45967400      -1.87836600
C        7.01499000       5.67015000      18.27026000      -1.33258000      -2.20422900      -3.42905700
C        7.01499000       8.91024000      18.27026000      -1.29472200       1.82447700      -2.96160400
C        1.40300000       2.43007000      18.72826000      -0.02559900       0.13779100       0.27278200
O        8.41799000       7.29020000      19.65726000       2.19566000      -0.09235000       0.75379100
O        7.01499000       5.67015000      19.42826000      -1.66521100      -1.80351500       3.17848700
O        4.20900000       2.43007000      19.88626000      -0.00502300       0.68707000      -0.18648300
O        7.01499000       8.91024000      19.42826000      -1.63651000       1.73443700       2.87668100
O        4.20900000       0.00000000      19.65726000       0.06128800      -0.72536600       1.20710900
O        1.40300000       2.43007000      19.88626000       0.00746200      -0.03962100      -0.12466000
Pt       9.82099000       8.91024000      14.58218000       0.01984100       0.04506700      -0.65598800
Pt       7.01499000       7.29020000      16.87326000      -0.05602100      -0.07669200       0.96395300
Pt       4.20900000       7.29020000      16.87326000      -0.80063800      -0.56774300       1.08670300
Pt       2.80600000       4.86013000      16.87326000       0.13220400       0.03971000       0.18125100
Pt       4.20900000       2.43007000      16.87326000      -0.00662800       0.76641300       0.48009000
Pt       1.40300000       2.43007000      16.87326000       0.05763300       0.10530000       0.55099600
Pt       2.80600000       0.00000000      16.87326000       0.39431600      -0.07959200       1.06426200
Pt       0.00000000       0.00000000      16.87326000      -0.38307000      -0.58966200       1.38771300
Pt       7.01499000       8.91024000      14.58218000      -0.02937600       0.11415900      -0.27777500
Pt       5.61200000       4.86013000      16.87326000      -0.04825400       0.39731000       0.39063100
Pt       0.00000000       0.00000000      10.00000000       0.02182400      -0.04119200      -0.17643800
Pt       4.20900000       4.05011000      14.58218000      -0.03141600      -0.04712500      -0.03529600
Pt       2.80600000       0.00000000      10.00000000      -0.01590300      -0.04665800      -0.15770500
Pt       1.40300000       2.43007000      10.00000000       0.00097700      -0.03741300      -0.19912900
Pt       4.20900000       2.43007000      10.00000000       0.00012700      -0.00441200      -0.08517900
Pt       2.80600000       4.86013000      10.00000000       0.00669100      -0.00491000      -0.20194700
Pt       5.61200000       4.86013000      10.00000000       0.00485800       0.03989900      -0.08347200
Pt       4.20900000       7.29020000      10.00000000       0.00255200       0.04115200      -0.24009800
Pt       7.01499000       7.29020000      10.00000000       0.00377600       0.04470100      -0.22061200
Pt       1.40300000       0.81002000      12.29109000      -0.00330300       0.06716100       0.13780400
Pt       8.41799000       6.48017000      14.58218000       0.02757000      -0.07282200      -0.88535100
Pt       4.20900000       0.81002000      12.29109000       0.00488600      -0.03262100       0.12917700
Pt       5.61200000       3.24009000      12.29109000       0.04348800       0.00749500       0.11030300
Pt       4.20900000       5.67015000      12.29109000      -0.01237200      -0.05758600       0.08264100
Pt       7.01499000       5.67015000      12.29109000       0.08458600       0.01214600       0.08465500
Pt       5.61200000       8.10022000      12.29109000      -0.02490100      -0.08214500       0.12756500
Pt       8.41799000       8.10022000      12.29109000       0.01985000      -0.08343200       0.07690300
Pt       5.61200000       1.62004000      14.58218000       0.03118100       0.13309200      -0.36339000
Pt       2.80600000       1.62004000      14.58218000      -0.02109800       0.09594800      -0.37026000
Pt       7.01499000       4.05011000      14.58218000       0.02091500      -0.26095000      -0.43835100
Pt       2.80600000       3.24009000      12.29109000      -0.06925500       0.03865000       0.08096600
Pt       5.61200000       6.48017000      14.58218000      -0.00894900       0.30355600      -0.08077500
44
Lattice="5.611995395 0.0 0.0 5.611995395 9.720261156 0.0 0.0 0.0 29.886262579" Properties=species:S:1:pos:R:3:forces:R:3 energy=-279.44925419 pbc="T T T"
C        2.80600000       2.43007000      18.49926000       0.00000000      -0.88238600      -3.19756200
C        4.20900000       7.29020000      18.72826000      -0.19022700       0.85571400       0.21594700
C        0.00000000       0.00000000      18.72826000      -0.00000000       0.71544400       0.04887500
C        4.20900000       4.86013000      18.49926000       0.28662100      -0.71694900      -2.99053300
C        7.01499000       7.29020000      18.72826000       0.19022700       0.85571400       0.21594700
C        7.01499000       4.86013000      18.49926000      -0.28662100      -0.71694900      -2.99053300
O        0.00000000       0.00000000      19.88626000       0.00000000       0.26257600       0.01746300
O        4.20900000       4.86013000      19.65726000       0.04099100      -0.70482400       1.26620200
O        2.80600000       2.43007000      19.65726000       0.00000000      -0.17606300       1.66714500
O        7.01499000       7.29020000      19.88626000       0.07603600       0.55817700       0.01192900
O        4.20900000       7.29020000      19.88626000      -0.07603600       0.55817700       0.01192900
O        7.01499000       4.86013000      19.65726000      -0.04099100      -0.70482400       1.26620200
Pt       9.82099000       8.91024000      14.58218000       0.11915100      -0.08981700      -0.18139900
Pt       7.01499000       7.29020000      16.87326000       0.25134300       0.47054900       0.43404300
Pt       4.20900000       7.29020000      16.87326000      -0.25134300       0.47054900       0.43404300
Pt       2.80600000       4.86013000      16.87326000       0.00000000      -0.29625600       1.98311300
Pt       4.20900000       2.43007000      16.87326000      -0.62919100      -0.50524800       1.02611100
Pt       1.40300000       2.43007000      16.87326000       0.62919100      -0.50524800       1.02611100
Pt       2.80600000       0.00000000      16.87326000      -0.00000000       0.16015000      -0.45950400
Pt       0.00000000       0.00000000      16.87326000       0.00000000       0.59212400       0.74374500
Pt       7.01499000       8.91024000      14.58218000      -0.11915100      -0.08981700      -0.18139900
Pt       5.61200000       4.86013000      16.87326000       0.00000000      -0.72388500       2.30095500
Pt       0.00000000       0.00000000      10.00000000       0.00000000       0.04815900      -0.10898100
Pt       4.20900000       4.05011000      14.58218000       0.03795600       0.19821400      -0.36207400
Pt       2.80600000       0.00000000      10.00000000       0.00000000      -0.01196500      -0.16240300
Pt       1.40300000       2.43007000      10.00000000      -0.00140600       0.03129200      -0.23751000
Pt       4.20900000       2.43007000      10.00000000       0.00140600       0.03129200      -0.23751000
Pt       2.80600000       4.86013000      10.00000000       0.00000000      -0.04612000      -0.18606100
Pt       5.61200000       4.86013000      10.00000000       0.00000000      -0.00226100      -0.20898600
Pt       4.20900000       7.29020000      10.00000000       0.03835000      -0.02693700      -0.12681300
Pt       7.01499000       7.29020000      10.00000000      -0.03835000      -0.02693700      -0.12681300
Pt       1.40300000       0.81002000      12.29109000       0.04726000       0.02061300       0.08565600
Pt       8.41799000       6.48017000      14.58218000      -0.00000000       0.21278000      -0.50981700
Pt       4.20900000       0.81002000      12.29109000      -0.04726000       0.02061300       0.08565600
Pt       5.61200000       3.24009000      12.29109000       0.00000000      -0.03695700       0.09820800
Pt       4.20900000       5.67015000      12.29109000       0.02140100      -0.05276400       0.10637800
Pt       7.01499000       5.67015000      12.29109000      -0.02140100      -0.05276400       0.10637800
Pt       5.61200000       8.10022000      12.29109000       0.00000000       0.04432900       0.23784900
Pt       8.41799000       8.10022000      12.29109000       0.00000000       0.01046400       0.09394200
Pt       5.61200000       1.62004000      14.58218000       0.00000000       0.09650800       0.03729600
Pt       2.80600000       1.62004000      14.58218000       0.00000000      -0.09845500      -0.63512000
Pt       7.01499000       4.05011000      14.58218000      -0.03795600       0.19821400      -0.36207400
Pt       2.80600000       3.24009000      12.29109000       0.00000000      -0.09062900       0.12375600
Pt       5.61200000       6.48017000      14.58218000       0.00000000       0.14640200      -0.37978100
44
Lattice="5.611995395 0.0 0.0 5.611995395 9.720261156 0.0 0.0 0.0 29.657262579" Properties=species:S:1:pos:R:3:forces:R:3 energy=-278.53831367 pbc="T T T"
C        2.80600000       2.43007000      18.49926000       0.18083800       0.34125300      -2.35410200
C        4.20900000       0.00000000      18.49926000       0.00895900      -0.06272600      -2.57202700
C        5.61200000       3.24009000      18.27026000      -1.26823900      -1.44015000      -3.10064300
C        7.01499000       4.86013000      18.49926000       2.16677200       2.23317700      -2.25344300
C        1.40300000       0.00000000      18.49926000      -0.00353000      -0.03731600      -2.56119400
C        5.61200000       7.29020000      18.49926000      -0.31182700      -0.34844700      -2.79317300
O        5.61200000       3.24009000      19.42826000      -1.63263500      -1.81656700       2.84768300
O        7.01499000       4.86013000      19.65726000       1.14476400       1.37132400       1.00893100
O        2.80600000       2.43007000      19.65726000       0.04899500       0.06419300       1.04434500
O        1.40300000       0.00000000      19.65726000       0.00373200      -0.00205700       1.03363900
O        4.20900000       0.00000000      19.65726000      -0.00713800       0.00434300       1.03739900
O        5.61200000       7.29020000      19.65726000      -0.03305500      -0.09453800       1.33468000
Pt       9.82099000       8.91024000      14.58218000      -0.03172400       0.21580000      -0.38423700
Pt       7.01499000       7.29020000      16.87326000      -0.36722600      -0.32907600       0.95866200
Pt       4.20900000       7.29020000      16.87326000       0.46770000      -0.61774100       1.05039700
Pt       2.80600000       4.86013000      16.87326000      -0.64048600       0.44399000       1.09302100
Pt       4.20900000       2.43007000      16.87326000      -0.53509100       0.37871400       1.42959600
Pt       1.40300000       2.43007000      16.87326000       0.53124200      -0.15236600       1.05942800
Pt       2.80600000       0.00000000      16.87326000      -0.02736800      -0.79310400       2.16543000
Pt       0.00000000       0.00000000      16.87326000       0.04231600      -0.10033400       2.13710000
Pt       7.01499000       8.91024000      14.58218000       0.03630100       0.20182600      -0.39639000
Pt       5.61200000       4.86013000      16.87326000       0.17262600       0.11132400       1.07396600
Pt       0.00000000       0.00000000      10.00000000      -0.00329400      -0.00479000      -0.18359200
Pt       4.20900000       4.05011000      14.58218000      -0.00736400       0.37226000      -0.19729800
Pt       2.80600000       0.00000000      10.00000000       0.01210100      -0.00766100      -0.16253400
Pt       1.40300000       2.43007000      10.00000000       0.00784200      -0.03898100      -0.14681700
Pt       4.20900000       2.43007000      10.00000000       0.01121800       0.01451000      -0.07694400
Pt       2.80600000       4.86013000      10.00000000       0.00144500       0.02183100      -0.06682900
Pt       5.61200000       4.86013000      10.00000000      -0.00251400      -0.02418700      -0.21595700
Pt       4.20900000       7.29020000      10.00000000       0.00878000      -0.00392100      -0.18520500
Pt       7.01499000       7.29020000      10.00000000      -0.00540700      -0.02896500      -0.16559300
Pt       1.40300000       0.81002000      12.29109000      -0.02442000      -0.06854800       0.07169700
Pt       8.41799000       6.48017000      14.58218000       0.02753400       0.28921200       0.05232800
Pt       4.20900000       0.81002000      12.29109000       0.01012800      -0.07693300       0.09921900
Pt       5.61200000       3.24009000      12.29109000       0.04174500       0.03392300       0.14854500
Pt       4.20900000       5.67015000      12.29109000       0.04429900       0.00698800       0.13355000
Pt       7.01499000       5.67015000      12.29109000      -0.06664500       0.01480300       0.10261800
Pt       5.61200000       8.10022000      12.29109000      -0.00317300       0.02457200       0.08399500
Pt       8.41799000       8.10022000      12.29109000       0.00110900      -0.07119600       0.13774400
Pt       5.61200000       1.62004000      14.58218000       0.02036700       0.18993900      -0.33455700
Pt       2.80600000       1.62004000      14.58218000      -0.01332100       0.12999200      -0.54200600
Pt       7.01499000       4.05011000      14.58218000       0.03975700      -0.05827500      -0.99036600
Pt       2.80600000       3.24009000      12.29109000      -0.00891100      -0.03823500       0.14054800
Pt       5.61200000       6.48017000      14.58218000      -0.03720300      -0.24786500      -0.56161100
44
Lattice="5.611995395 0.0 0.0 5.611995395 9.720261156 0.0 0.0 0.0 29.657262579" Properties=species:S:1:pos:R:3:forces:R:3 energy=-277.38946264 pbc="T T T"
C        5.61200000       2.43007000      18.49926000       0.49383900      -0.30832300      -2.29788500
C        4.20900000       0.00000000      18.49926000      -0.57616900      -0.03812500      -2.78251900
C        5.61200000       7.29020000      18.49926000      -1.57512000       2.22731100      -2.21532700
C        2.80600000       3.24009000      18.27026000      -1.11018700      -2.27593900      -2.80627000
C        7.01499000       5.67015000      18.27026000       0.85381900      -0.90974800      -2.95214500
C        4.20900000       4.86013000      18.49926000       1.70864300       1.91762800      -1.76157600
O        5.61200000       7.29020000      19.65726000      -1.07533900       1.38220700       0.96204800
O        2.80600000       3.24009000      19.42826000      -1.57925300      -1.83762100       2.64301500
O        5.61200000       2.43007000      19.65726000       0.08053400       0.01601800       1.02585400
O        7.01499000       5.67015000      19.42826000       1.64347700      -1.76729800       2.69158900
O        4.20900000       0.00000000      19.65726000      -0.08670900       0.01762800       1.30653400