6
Lattice="2.806 0.0 0.0 -1.403 2.430067283 0.0 0.0 0.0 25.60088" Properties=species:S:1:pos:R:3:forces:R:3 energy=-38.6973031 pbc="T T T"
C        1.44700000       0.84602000      16.42045000      -0.00929700      -0.00396700      -0.03945700
O        1.44281000       0.84321000      17.60088000       0.00279400       0.00281300      -0.07173000
Pt       1.40176000       2.42843000       8.00000000       0.00172500       0.00055300      -0.08399200
Pt       1.41110000       0.81725000      10.30747000       0.00312000       0.00489100       0.06116900
Pt       0.01676000       1.63532000      12.61235000       0.00602900       0.00933300      -0.05279300
Pt       0.03517000       0.03186000      15.01355000      -0.00437100      -0.01362300       0.18680300
6
Lattice="2.806 0.0 0.0 -1.403 2.430067283 0.0 0.0 0.0 26.00677" Properties=species:S:1:pos:R:3:forces:R:3 energy=-38.82661404 pbc="T T T"
C        0.06733000       0.05785000      16.84707000      -0.00901000      -0.00974300       0.07054600
O        0.11178000       0.09399000      18.00677000      -0.02283200      -0.01919200      -0.04637200
Pt       0.00089000       0.00123000       8.00000000       0.00286400       0.00381700      -0.03942900
Pt       1.41024000       0.81602000      10.31881000       0.00173900       0.00091300       0.03982000
Pt       0.01143000       1.62994000      12.63295000       0.00227000       0.00460100       0.06236600
Pt       0.01060000       0.01123000      14.99433000       0.02496900       0.01960400      -0.08693100
6
Lattice="2.806 0.0 0.0 -1.403 2.430067283 0.0 0.0 0.0 25.60063" Properties=species:S:1:pos:R:3:forces:R:3 energy=-38.69798067 pbc="T T T"
C        1.44678000       0.84588000      16.42026000      -0.00935000      -0.00361900      -0.01240700
O        1.44285000       0.84324000      17.60063000       0.00185900       0.00251000      -0.04627100
Pt       1.40182000       2.42848000       8.00000000       0.00160500       0.00068400      -0.07528100
Pt       1.41117000       0.81724000      10.30877000       0.00308000       0.00513200       0.04372100
Pt       0.01690000       1.63539000      12.61203000       0.00598100       0.00944700      -0.02726500
Pt       0.03507000       0.03185000      15.01727000      -0.00317500      -0.01415300       0.11750300
6
Lattice="2.806 0.0 0.0 -1.403 2.430067283 0.0 0.0 0.0 25.62136" Properties=species:S:1:pos:R:3:forces:R:3 energy=-38.64958122 pbc="T T T"
C       -0.02091000       1.66057000      16.44260000      -0.01108100      -0.02922400      -0.16436100
O       -0.02414000       1.65174000      17.62136000      -0.00448500       0.03313100       0.00144200
Pt      -1.40083000       2.42926000       8.00000000      -0.00137900       0.00027000      -0.12399700
Pt       1.39544000       0.81590000      10.30002000      -0.00134300       0.00460200       0.10586600
Pt      -0.01739000       1.63403000      12.60464000      -0.00412900       0.01532000      -0.02668200
Pt       2.77277000       0.03907000      15.02706000       0.02241600      -0.02409900       0.20773300
6
Lattice="2.806 0.0 0.0 -1.403 2.430067283 0.0 0.0 0.0 26.00564" Properties=species:S:1:pos:R:3:forces:R:3 energy=-38.82562003 pbc="T T T"
C        0.06830000       0.05884000      16.84613000      -0.01592800      -0.01721100      -0.03866800
O        0.11315000       0.09508000      18.00564000      -0.02035800      -0.01687100      -0.03774800
Pt       0.00085000       0.00111000       8.00000000       0.00309500       0.00361200      -0.09739900
Pt       1.40970000       0.81567000      10.30854000       0.00033100      -0.00171900       0.14151700
Pt       0.01106000       1.62976000      12.63084000       0.00694400       0.00786300       0.00406300
Pt       0.00920000       0.00979000      14.98886000       0.02591600       0.02432600       0.02823500
6
Lattice="2.806 0.0 0.0 -1.403 2.430067283 0.0 0.0 0.0 25.62351" Properties=species:S:1:pos:R:3:forces:R:3 energy=-38.65039901 pbc="T T T"
C       -0.02106000       1.65992000      16.44100000      -0.01274700      -0.02779900       0.23084100
O       -0.02418000       1.65235000      17.62351000      -0.00372000       0.03088000      -0.31989300
Pt      -1.40078000       2.42925000       8.00000000       0.00025000       0.00017900      -0.10574400
Pt       1.39542000       0.81592000      10.30292000      -0.00315500       0.00505500       0.07576100
Pt      -0.01742000       1.63416000      12.60574000      -0.00269300       0.01438500      -0.00236000
Pt       2.77296000       0.03896000      15.03247000       0.02206400      -0.02269900       0.12139600
6
Lattice="2.806 0.0 0.0 -1.403 2.430067283 0.0 0.0 0.0 25.62283" Properties=species:S:1:pos:R:3:forces:R:3 energy=-38.65155851 pbc="T T T"
C       -0.02137000       1.65869000      16.44331000      -0.01371800      -0.01778500       0.01221800
O       -0.02423000       1.65346000      17.62283000      -0.00490200       0.02163100      -0.00255200
Pt      -1.40068000       2.42923000       8.00000000      -0.00070700       0.00027400      -0.07693900
Pt       1.39539000       0.81597000      10.30776000      -0.00305200       0.00252000       0.02575400
Pt      -0.01747000       1.63438000      12.60792000      -0.00313400       0.01352000       0.03832500
Pt       2.77330000       0.03884000      15.04117000       0.02551300      -0.02016000       0.00319400
6
Lattice="2.806 0.0 0.0 -1.403 2.430067283 0.0 0.0 0.0 25.62306" Properties=species:S:1:pos:R:3:forces:R:3 energy=-38.65099322 pbc="T T T"
C       -0.02115000       1.65955000      16.44196000      -0.01304900      -0.02471600       0.11593600
O       -0.02419000       1.65267000      17.62306000      -0.00414500       0.02744200      -0.17881200
Pt      -1.40075000       2.42924000       8.00000000       0.00035700      -0.00020100      -0.09724000
Pt       1.39542000       0.81594000      10.30431000      -0.00357900       0.00263500       0.06297000
Pt      -0.01743000       1.63423000      12.60638000      -0.00264700       0.01399400       0.01050700
Pt       2.77306000       0.03893000      15.03496000       0.02306300      -0.01915400       0.08664000
6
Lattice="2.806 0.0 0.0 -1.403 2.430067283 0.0 0.0 0.0 25.62319" Properties=species:S:1:pos:R:3:forces:R:3 energy=-38.65035795 pbc="T T T"
C       -0.02104000       1.66001000      16.44124000      -0.01361500      -0.02778500       0.17190900
O       -0.02417000       1.65226000      17.62319000      -0.00428000       0.03144200      -0.27294000
Pt      -1.40079000       2.42925000       8.00000000      -0.00025900       0.00028800      -0.10884200
Pt       1.39543000       0.81592000      10.30248000      -0.00182400       0.00493200       0.07957300
Pt      -0.01742000       1.63414000      12.60557000      -0.00447300       0.01525900      -0.00561000
Pt       2.77293000       0.03898000      15.03166000       0.02445100      -0.02413600       0.13591100
6
Lattice="2.806 0.0 0.0 -1.403 2.430067283 0.0 0.0 0.0 25.6003" Properties=species:S:1:pos:R:3:forces:R:3 energy=-38.6984235 pbc="T T T"
C        1.44649000       0.84570000      16.42001000      -0.00932400      -0.00333900       0.02175100
O        1.44290000       0.84327000      17.60030000       0.00077300       0.00257900      -0.01308900
Pt       1.40191000       2.42855000       8.00000000       0.00172800       0.00117000      -0.06539700
Pt       1.41128000       0.81724000      10.31054000       0.00654400       0.00536800       0.02018600
Pt       0.01709000       1.63547000      12.61159000       0.00437300       0.00959300       0.00501100
Pt       0.03493000       0.03185000      15.02227000      -0.00409500      -0.01537100       0.03153800
6
Lattice="2.805997698 0.0 0.0 1.402998849 2.430065289 0.0 0.0 0.0 29.886262579" Properties=species:S:1:pos:R:3:forces:R:3 energy=-38.81079771 pbc="T T T"
C        0.00000000       0.00000000      18.72826000       0.00000000       0.00000000      -0.15215300
O        0.00000000       0.00000000      19.88626000      -0.00000000      -0.00000000       0.28861900
Pt       0.00000000       0.00000000      10.00000000       0.00000000      -0.00000000      -0.20562800
Pt       1.40300000       0.81002000      12.29109000       0.00000000      -0.00000000       0.08497100
Pt       2.80600000       1.62004000      14.58218000       0.00000000       0.00000000      -0.32060900
Pt       0.00000000       0.00000000      16.87326000       0.00000000      -0.00000000       0.30480100
6
Lattice="2.805997698 0.0 0.0 1.402998849 2.430065289 0.0 0.0 0.0 29.428262579" Properties=species:S:1:pos:R:3:forces:R:3 energy=-38.62570008 pbc="T T T"
C        1.40300000       0.81002000      18.27026000       0.00000000       0.00000000      -2.02813700
O        1.40300000       0.81002000      19.42826000      -0.00000000       0.00000000       2.34780400
Pt       0.00000000       0.00000000      10.00000000      -0.00000000       0.00000000      -0.18504500
Pt       1.40300000       0.81002000      12.29109000      -0.00000000       0.00000000       0.08600900
Pt       2.80600000       1.62004000      14.58218000      -0.00000000       0.00000000      -0.68307100
Pt       0.00000000       0.00000000      16.87326000      -0.00000000      -0.00000000       0.46244100
6
Lattice="2.805997698 0.0 0.0 1.402998849 2.430065289 0.0 0.0 0.0 29.657262579" Properties=species:S:1:pos:R:3:forces:R:3 energy=-38.55611816 pbc="T T T"
C        1.40300000       0.00000000      18.49926000       0.00000000       0.07217500      -2.44748900
O        1.40300000       0.00000000      19.65726000       0.00000000      -0.01459500       1.06845700
Pt       0.00000000       0.00000000      10.00000000       0.00000000      -0.01244100      -0.15655600
Pt       1.40300000       0.81002000      12.29109000       0.00000000      -0.02371900       0.11902500
Pt       2.80600000       1.62004000      14.58218000      -0.00000000       0.24950800      -0.49600500
Pt       0.00000000       0.00000000      16.87326000       0.00000000      -0.27092800       1.91256800
6
Lattice="2.805997698 0.0 0.0 1.402998849 2.430065289 0.0 0.0 0.0 29.428262579" Properties=species:S:1:pos:R:3:forces:R:3 energy=-38.56617024 pbc="T T T"
C        2.80600000       1.62004000      18.27026000       0.00000000       0.00000000      -1.90606900
O        2.80600000       1.62004000      19.42826000      -0.00000000      -0.00000000       2.30407700
Pt       0.00000000       0.00000000      10.00000000      -0.00000000      -0.00000000      -0.17976400
Pt       1.40300000       0.81002000      12.29109000      -0.00000000      -0.00000000       0.06480300
Pt       2.80600000       1.62004000      14.58218000      -0.00000000      -0.00000000      -0.78869200
Pt       0.00000000       0.00000000      16.87326000      -0.00000000      -0.00000000       0.50564500
