36
Lattice="5.611995395 0.0 0.0 4.208996546 7.290195867 0.0 0.0 0.0 29.886262579" Properties=species:S:1:pos:R:3:forces:R:3 energy=-231.50977457 pbc="T T T"
C        4.20900000       4.86013000      18.49926000      -0.00000500       0.06984100      -3.20997600
C        1.40300000       2.43007000      18.72826000      -0.00026700      -0.42370600       0.17767100
C        0.00000000       0.00000000      18.72826000       0.00027500       0.46148800       0.18614000
C        2.80600000       0.00000000      18.72826000       0.00027500       0.46148800       0.18614000
C        4.20900000       2.43007000      18.72826000      -0.00026700      -0.42370600       0.17767100
C        7.01499000       4.86013000      18.49926000      -0.00000500       0.06984100      -3.20997600
O        0.00000000       0.00000000      19.88626000       0.00157400       0.44017800       0.07830700
O        4.20900000       4.86013000      19.65726000       0.00000100      -0.00714400       1.40370200
O        1.40300000       2.43007000      19.88626000      -0.00157600      -0.46001300       0.08679700
O        7.01499000       4.86013000      19.65726000       0.00000100      -0.00714400       1.40370200
O        2.80600000       0.00000000      19.88626000       0.00157400       0.44017800       0.07830700
O        4.20900000       2.43007000      19.88626000      -0.00157600      -0.46001300       0.08679700
Pt       0.00000000       0.00000000      16.87326000      -0.00001700       0.16132400       0.39028500
Pt       5.61200000       4.86013000      16.87326000       0.00001100      -0.29361800       2.15831200
Pt       2.80600000       4.86013000      16.87326000       0.00001100      -0.29361800       2.15831200
Pt       4.20900000       2.43007000      16.87326000      -0.00001900      -0.12077700       0.35587600
Pt       1.40300000       2.43007000      16.87326000      -0.00001900      -0.12077700       0.35587600
Pt       2.80600000       0.00000000      16.87326000      -0.00001700       0.16132400       0.39028500
Pt       0.00000000       0.00000000      10.00000000      -0.00000100      -0.01489300      -0.26076900
Pt       4.20900000       4.05011000      14.58218000      -0.00000800       0.00933800      -0.38684300
Pt       2.80600000       0.00000000      10.00000000      -0.00000100      -0.01489300      -0.26076900
Pt       1.40300000       2.43007000      10.00000000       0.00000100      -0.01109200      -0.19521000
Pt       4.20900000       2.43007000      10.00000000       0.00000100      -0.01109200      -0.19521000
Pt       2.80600000       4.86013000      10.00000000      -0.00000200       0.01550100      -0.23094900
Pt       5.61200000       4.86013000      10.00000000      -0.00000200       0.01550100      -0.23094900
Pt       1.40300000       0.81002000      12.29109000       0.00000200      -0.02147300       0.10103200
Pt       8.41799000       6.48017000      14.58218000       0.00001100       0.18436100      -0.58384600
Pt       4.20900000       0.81002000      12.29109000       0.00000200      -0.02147300       0.10103200
Pt       5.61200000       3.24009000      12.29109000       0.00000600       0.00688800       0.11249900
Pt       4.20900000       5.67015000      12.29109000       0.00000200       0.00222300       0.12879800
Pt       7.01499000       5.67015000      12.29109000       0.00000200       0.00222300       0.12879800
Pt       5.61200000       1.62004000      14.58218000       0.00001200       0.00157400      -0.31182600
Pt       2.80600000       1.62004000      14.58218000       0.00001200       0.00157400      -0.31182600
Pt       7.01499000       4.05011000      14.58218000      -0.00000800       0.00933800      -0.38684300
Pt       2.80600000       3.24009000      12.29109000       0.00000600       0.00688800       0.11249900
Pt       5.61200000       6.48017000      14.58218000       0.00001100       0.18436100      -0.58384600
36
Lattice="5.611995395 0.0 0.0 4.208996546 7.290195867 0.0 0.0 0.0 29.657262579" Properties=species:S:1:pos:R:3:forces:R:3 energy=-228.34559047 pbc="T T T"
C        4.20900000       0.81002000      18.27026000       0.98968100      -2.18344800      -2.85718800
C        4.20900000       4.86013000      18.49926000      -2.08276500       2.08245700      -1.87319200
C        2.80600000       2.43007000      18.49926000      -1.86885000       1.43786300      -1.67811100
C        1.40300000       0.00000000      18.49926000      -0.17636200       0.25696000      -2.12077900
C        7.01499000       4.86013000      18.49926000       2.09283700       2.05043800      -1.89344400
C        5.61200000       3.24009000      18.27026000       0.37832100      -3.02286700      -2.84928600
O        2.80600000       2.43007000      19.65726000      -1.07075200       1.35927300       0.75828100
O        4.20900000       0.81002000      19.42826000       1.59705100      -1.85833900       2.72433800
O        4.20900000       4.86013000      19.65726000      -1.04894500       1.38314100       0.76980400
O        5.61200000       3.24009000      19.42826000      -0.00900100      -3.48711200       2.62810800
O        1.40300000       0.00000000      19.65726000      -0.04779000       0.09319900       1.01717600
O        7.01499000       4.86013000      19.65726000       1.04611800       1.39678200       0.74921300
Pt       0.00000000       0.00000000      16.87326000       0.50242600       0.16805300       1.39262100
Pt       5.61200000       4.86013000      16.87326000       0.03725300       0.21486800       1.49109000
Pt       2.80600000       4.86013000      16.87326000      -0.04202000       0.09345700       2.28751700
Pt       4.20900000       2.43007000      16.87326000      -0.31909200      -0.18242400       1.00485800
Pt       1.40300000       2.43007000      16.87326000       0.53835100      -0.32237200       1.12363600
Pt       2.80600000       0.00000000      16.87326000      -0.49638200      -0.21399100       1.06447300
Pt       0.00000000       0.00000000      10.00000000       0.01872600      -0.00210000      -0.19540900
Pt       4.20900000       4.05011000      14.58218000      -0.01256300       0.11388700      -0.48896700
Pt       2.80600000       0.00000000      10.00000000      -0.01897300       0.00645100      -0.16033600
Pt       1.40300000       2.43007000      10.00000000       0.01491900      -0.00986900      -0.21123500
Pt       4.20900000       2.43007000      10.00000000      -0.01393200      -0.02134200      -0.20349100
Pt       2.80600000       4.86013000      10.00000000       0.00694300      -0.02563700      -0.16226100
Pt       5.61200000       4.86013000      10.00000000      -0.00567600      -0.01348900      -0.17048900
Pt       1.40300000       0.81002000      12.29109000      -0.03552500      -0.04374100       0.13945800
Pt       8.41799000       6.48017000      14.58218000      -0.02348000       0.19943600      -0.40955500
Pt       4.20900000       0.81002000      12.29109000       0.03597900      -0.02428200       0.09838000
Pt       5.61200000       3.24009000      12.29109000      -0.00879500      -0.00619800       0.10469000
Pt       4.20900000       5.67015000      12.29109000      -0.02001100       0.02070500       0.08046500
Pt       7.01499000       5.67015000      12.29109000       0.02155600      -0.04652300       0.08242200
Pt       5.61200000       1.62004000      14.58218000       0.03568900       0.28469100      -0.57837700
Pt       2.80600000       1.62004000      14.58218000      -0.04057600       0.15489900      -0.71467000
Pt       7.01499000       4.05011000      14.58218000       0.01242900       0.25613200      -0.64920900
Pt       2.80600000       3.24009000      12.29109000       0.00596300      -0.03346300       0.11304500
Pt       5.61200000       6.48017000      14.58218000       0.00725200      -0.07549500      -0.41357500
36
Lattice="5.611995395 0.0 0.0 4.208996546 7.290195867 0.0 0.0 0.0 29.657262579" Properties=species:S:1:pos:R:3:forces:R:3 energy=-228.55227894 pbc="T T T"
C        4.20900000       0.81002000      18.27026000       0.57528700      -1.66308200      -2.67393400
C        5.61200000       3.24009000      18.27026000      -0.59123100      -1.66015700      -2.68034300
C        4.20900000       5.67015000      18.27026000      -1.39983800      -1.65249800      -2.67437400
C        1.40300000       0.00000000      18.49926000       1.71093400       1.82594900      -1.58366900
C        7.01499000       4.86013000      18.49926000       2.07086900       1.81182500      -1.59382900
C        2.80600000       2.43007000      18.49926000      -1.70576500       1.77606000      -1.60884500
O        4.20900000       5.67015000      19.42826000      -1.57856400      -1.80847200       2.59263900
O        4.20900000       0.81002000      19.42826000       1.60639600      -1.79829100       2.57543800
O        5.61200000       3.24009000      19.42826000      -1.59792700      -1.80321000       2.58250700
O        2.80600000       2.43007000      19.65726000      -1.02795900       1.45057100       0.69878500
O        1.40300000       0.00000000      19.65726000       1.02125500       1.43697300       0.72547800
O        7.01499000       4.86013000      19.65726000       1.11491400       1.45251800       0.70640600
Pt       0.00000000       0.00000000      16.87326000       0.37574300       0.27057100       1.28297300
Pt       5.61200000       4.86013000      16.87326000       0.41705800      -0.16853200       0.93650000
Pt       2.80600000       4.86013000      16.87326000      -0.64721500       0.17191600       1.35679800
Pt       4.20900000       2.43007000      16.87326000      -0.42902800       0.29465800       1.27385500
Pt       1.40300000       2.43007000      16.87326000       0.63744300      -0.25398500       1.04207700
Pt       2.80600000       0.00000000      16.87326000      -0.57536400      -0.23424300       1.03935600
Pt       0.00000000       0.00000000      10.00000000       0.01712400      -0.01666000      -0.20388300
Pt       4.20900000       4.05011000      14.58218000       0.00879700       0.10263800      -0.43644300
Pt       2.80600000       0.00000000      10.00000000      -0.01703300      -0.00911200      -0.16318600
Pt       1.40300000       2.43007000      10.00000000       0.00818200       0.01381200      -0.18849800
Pt       4.20900000       2.43007000      10.00000000      -0.00769600      -0.03185600      -0.17926000
Pt       2.80600000       4.86013000      10.00000000      -0.00657100      -0.02695200      -0.16122300
Pt       5.61200000       4.86013000      10.00000000       0.00680900       0.01138300      -0.20477000
Pt       1.40300000       0.81002000      12.29109000      -0.02652600      -0.02543100       0.11072900
Pt       8.41799000       6.48017000      14.58218000      -0.04749700       0.28285300      -0.59243800
Pt       4.20900000       0.81002000      12.29109000       0.02571300      -0.00779800       0.06996700
Pt       5.61200000       3.24009000      12.29109000      -0.02251200       0.00832700       0.09185000
Pt       4.20900000       5.67015000      12.29109000      -0.01397500       0.03454700       0.08928000
Pt       7.01499000       5.67015000      12.29109000       0.01178400      -0.07073200       0.10088500
Pt       5.61200000       1.62004000      14.58218000       0.05138000       0.10006800      -0.40874000
Pt       2.80600000       1.62004000      14.58218000      -0.03997600       0.15348800      -0.74495300
Pt       7.01499000       4.05011000      14.58218000       0.01685600       0.13208100      -0.72936200
Pt       2.80600000       3.24009000      12.29109000       0.01858600      -0.05773200       0.09747800
Pt       5.61200000       6.48017000      14.58218000       0.03954900      -0.04149500      -0.54525000
36
Lattice="5.611995395 0.0 0.0 4.208996546 7.290195867 0.0 0.0 0.0 29.657262579" Properties=species:S:1:pos:R:3:forces:R:3 energy=-226.97580627 pbc="T T T"
C        4.20900000       4.86013000      18.49926000      -0.00048100       0.86530400      -2.36386600
C        2.80600000       2.43007000      18.49926000       0.00002200       3.21308100      -1.47434000
C        1.40300000       0.81002000      18.27026000       0.00050200      -3.53452300      -2.81967000
C        4.20900000       0.81002000      18.27026000       0.00050200      -3.53452300      -2.81967000
C        5.61200000       2.43007000      18.49926000       0.00002200       3.21308100      -1.47434000
C        7.01499000       4.86013000      18.49926000      -0.00048100       0.86530400      -2.36386600
O        1.40300000       0.81002000      19.42826000       0.00162200      -3.58497800       2.79837100
O        4.20900000       4.86013000      19.65726000      -0.00249700       0.17981800       0.98773500
O        2.80600000       2.43007000      19.65726000       0.00082900       2.53427800       0.52319800
O        7.01499000       4.86013000      19.65726000      -0.00249700       0.17981800       0.98773500
O        4.20900000       0.81002000      19.42826000       0.00162200      -3.58497800       2.79837100
O        5.61200000       2.43007000      19.65726000       0.00082900       2.53427800       0.52319800
Pt       0.00000000       0.00000000      16.87326000       0.00005100      -0.27427400       0.37440100
Pt       5.61200000       4.86013000      16.87326000       0.00001300       0.20387000       2.14400200
Pt       2.80600000       4.86013000      16.87326000       0.00001300       0.20387000       2.14400200
Pt       4.20900000       2.43007000      16.87326000      -0.00000600       0.11560500       1.59631300
Pt       1.40300000       2.43007000      16.87326000      -0.00000600       0.11560500       1.59631300
Pt       2.80600000       0.00000000      16.87326000       0.00005100      -0.27427400       0.37440100
Pt       0.00000000       0.00000000      10.00000000      -0.00000400      -0.03092800      -0.20859700
Pt       4.20900000       4.05011000      14.58218000      -0.00001900       0.04420100      -0.36551500
Pt       2.80600000       0.00000000      10.00000000      -0.00000400      -0.03092800      -0.20859700
Pt       1.40300000       2.43007000      10.00000000      -0.00000500      -0.00914700      -0.18157700
Pt       4.20900000       2.43007000      10.00000000      -0.00000500      -0.00914700      -0.18157700
Pt       2.80600000       4.86013000      10.00000000      -0.00000500       0.01615000      -0.15909400
Pt       5.61200000       4.86013000      10.00000000      -0.00000500       0.01615000      -0.15909400
Pt       1.40300000       0.81002000      12.29109000       0.00000800       0.00196800       0.13364800
Pt       8.41799000       6.48017000      14.58218000      -0.00000600       0.07994900      -0.44303400
Pt       4.20900000       0.81002000      12.29109000       0.00000800       0.00196800       0.13364800
Pt       5.61200000       3.24009000      12.29109000       0.00000100      -0.02391800       0.09400700
Pt       4.20900000       5.67015000      12.29109000      -0.00000200      -0.05733500       0.09331500
Pt       7.01499000       5.67015000      12.29109000      -0.00000200      -0.05733500       0.09331500
Pt       5.61200000       1.62004000      14.58218000      -0.00002200       0.26087900      -0.72929500
Pt       2.80600000       1.62004000      14.58218000      -0.00002200       0.26087900      -0.72929500
Pt       7.01499000       4.05011000      14.58218000      -0.00001900       0.04420100      -0.36551500
Pt       2.80600000       3.24009000      12.29109000       0.00000100      -0.02391800       0.09400700
Pt       5.61200000       6.48017000      14.58218000      -0.00000600       0.07994900      -0.44303400
36
Lattice="5.611995395 0.0 0.0 4.208996546 7.290195867 0.0 0.0 0.0 29.428262579" Properties=species:S:1:pos:R:3:forces:R:3 energy=-231.39286764 pbc="T T T"
C        8.41799000       6.48017000      18.27026000       0.00018500       0.00010600      -1.85824500
C        5.61200000       1.62004000      18.27026000       0.00018500       0.00010600      -1.85824500
C        5.61200000       6.48017000      18.27026000       0.00018500       0.00010600      -1.85824500
C        2.80600000       1.62004000      18.27026000       0.00018500       0.00010600      -1.85824500
C        7.01499000       4.05011000      18.27026000       0.00018500       0.00010600      -1.85824500
C        4.20900000       4.05011000      18.27026000       0.00018500       0.00010600      -1.85824500
O        5.61200000       6.48017000      19.42826000      -0.00010500      -0.00006100       2.28980000
O        8.41799000       6.48017000      19.42826000      -0.00010500      -0.00006100       2.28980000
O        5.61200000       1.62004000      19.42826000      -0.00010500      -0.00006100       2.28980000
O        4.20900000       4.05011000      19.42826000      -0.00010500      -0.00006100       2.28980000
O        2.80600000       1.62004000      19.42826000      -0.00010500      -0.00006100       2.28980000
O        7.01499000       4.05011000      19.42826000      -0.00010500      -0.00006100       2.28980000
Pt       0.00000000       0.00000000      16.87326000      -0.00014100      -0.00008100       0.48774200
Pt       5.61200000       4.86013000      16.87326000      -0.00014100      -0.00008100       0.48774200
Pt       2.80600000       4.86013000      16.87326000      -0.00014100      -0.00008100       0.48774200
Pt       4.20900000       2.43007000      16.87326000      -0.00014100      -0.00008100       0.48774200
Pt       1.40300000       2.43007000      16.87326000      -0.00014100      -0.00008100       0.48774200
Pt       2.80600000       0.00000000      16.87326000      -0.00014100      -0.00008100       0.48774200
Pt       0.00000000       0.00000000      10.00000000       0.00002800       0.00001700      -0.20907600
Pt       4.20900000       4.05011000      14.58218000       0.00000300       0.00000100      -0.78070000
Pt       2.80600000       0.00000000      10.00000000       0.00002800       0.00001700      -0.20907600
Pt       1.40300000       2.43007000      10.00000000       0.00002800       0.00001700      -0.20907600
Pt       4.20900000       2.43007000      10.00000000       0.00002800       0.00001700      -0.20907600
Pt       2.80600000       4.86013000      10.00000000       0.00002800       0.00001700      -0.20907600
Pt       5.61200000       4.86013000      10.00000000       0.00002800       0.00001700      -0.20907600
Pt       1.40300000       0.81002000      12.29109000       0.00002900       0.00001700       0.07047900
Pt       8.41799000       6.48017000      14.58218000       0.00000300       0.00000100      -0.78070000
Pt       4.20900000       0.81002000      12.29109000       0.00002900       0.00001700       0.07047900
Pt       5.61200000       3.24009000      12.29109000       0.00002900       0.00001700       0.07047900
Pt       4.20900000       5.67015000      12.29109000       0.00002900       0.00001700       0.07047900
Pt       7.01499000       5.67015000      12.29109000       0.00002900       0.00001700       0.07047900
Pt       5.61200000       1.62004000      14.58218000       0.00000300       0.00000100      -0.78070000
Pt       2.80600000       1.62004000      14.58218000       0.00000300       0.00000100      -0.78070000
Pt       7.01499000       4.05011000      14.58218000       0.00000300       0.00000100      -0.78070000
Pt       2.80600000       3.24009000      12.29109000       0.00002900       0.00001700       0.07047900
Pt       5.61200000       6.48017000      14.58218000       0.00000300       0.00000100      -0.78070000
36
Lattice="5.611995395 0.0 0.0 4.208996546 7.290195867 0.0 0.0 0.0 29.657262579" Properties=species:S:1:pos:R:3:forces:R:3 energy=-228.5369869 pbc="T T T"
C        1.40300000       0.81002000      18.27026000       0.98390300      -1.17950700      -2.59973900
C        2.80600000       3.24009000      18.27026000       0.42015200      -0.27233200      -2.52109700
C        4.20900000       0.00000000      18.49926000      -0.16691100       3.37542400      -1.15629200
C        4.20900000       5.67015000      18.27026000       1.23702900      -1.77541500      -2.46394900
C        5.61200000       2.43007000      18.49926000      -1.89718500       2.15697000      -1.52967900
C        7.01499000       5.67015000      18.27026000      -1.22852000      -1.76868800      -2.42315500
O        4.20900000       0.00000000      19.65726000      -0.04895700       2.68939600       0.46458800
O        1.40300000       0.81002000      19.42826000       1.58476900      -1.73294500       2.47946100
O        2.80600000       3.24009000      19.42826000      -0.01011300      -0.07000700       2.55010100
O        7.01499000       5.67015000      19.42826000      -1.59091200      -1.80900400       2.53642100
O        4.20900000       5.67015000      19.42826000       1.58498500      -1.79610200       2.54437700
O        5.61200000       2.43007000      19.65726000      -1.07006600       1.54177100       0.67154700
Pt       0.00000000       0.00000000      16.87326000      -0.39643000      -0.09595100       0.91529200
Pt       5.61200000       4.86013000      16.87326000      -0.02902800       0.26461100       0.56329200
Pt       2.80600000       4.86013000      16.87326000       0.03346700      -0.56756700       0.32967100
Pt       4.20900000       2.43007000      16.87326000       0.64566700       0.19049800       1.28903900
Pt       1.40300000       2.43007000      16.87326000      -0.42031600       0.31904300       1.23604100
Pt       2.80600000       0.00000000      16.87326000       0.40631800       0.26850000       1.28395900
Pt       0.00000000       0.00000000      10.00000000      -0.01998000      -0.01516100      -0.18247800
Pt       4.20900000       4.05011000      14.58218000       0.00485000       0.12995400      -0.66281700
Pt       2.80600000       0.00000000      10.00000000       0.01630600      -0.01994300      -0.19484800
Pt       1.40300000       2.43007000      10.00000000      -0.01703300      -0.00921200      -0.14463900
Pt       4.20900000       2.43007000      10.00000000       0.01548100       0.01652900      -0.16978200
Pt       2.80600000       4.86013000      10.00000000      -0.00732900       0.00127500      -0.20813700
Pt       5.61200000       4.86013000      10.00000000       0.00169000      -0.01231300      -0.18832200
Pt       1.40300000       0.81002000      12.29109000       0.00871800      -0.02297600       0.06047800
Pt       8.41799000       6.48017000      14.58218000       0.00523300      -0.01934900      -0.70927700
Pt       4.20900000       0.81002000      12.29109000      -0.00788300       0.00801300       0.07514200
Pt       5.61200000       3.24009000      12.29109000      -0.01012200      -0.03752700       0.09369200
Pt       4.20900000       5.67015000      12.29109000       0.01548300      -0.03234900       0.09142300
Pt       7.01499000       5.67015000      12.29109000      -0.00553700       0.01493300       0.11338500
Pt       5.61200000       1.62004000      14.58218000      -0.02881400      -0.04331900      -0.58083900
Pt       2.80600000       1.62004000      14.58218000       0.01928600       0.07878600      -0.40014100
Pt       7.01499000       4.05011000      14.58218000      -0.01039400      -0.04494700      -0.50551300
Pt       2.80600000       3.24009000      12.29109000       0.00953300      -0.02472900       0.07598400
Pt       5.61200000       6.48017000      14.58218000      -0.02734200       0.29364000      -0.73318800
36
Lattice="5.611995395 0.0 0.0 4.208996546 7.290195867 0.0 0.0 0.0 29.886262579" Properties=species:S:1:pos:R:3:forces:R:3 energy=-229.11502082 pbc="T T T"
C        1.40300000       2.43007000      18.72826000      -0.01362500       0.95592400       0.47340500
C        4.20900000       2.43007000      18.72826000       0.01355200       0.05347900       0.68692000
C        4.20900000       0.00000000      18.49926000       1.85861700       1.32538800      -2.28104000
C        1.40300000       0.00000000      18.49926000      -1.85977500       1.33714700      -2.29861800
C        4.20900000       4.86013000      18.49926000      -0.00154900       0.14711400      -2.61746800
C        7.01499000       5.67015000      18.27026000      -0.00077600      -3.51883300      -3.11700200
O        4.20900000       0.00000000      19.65726000       0.99748700       0.67745000       0.91817400
O        1.40300000       2.43007000      19.88626000       0.00526300       0.73218600      -0.09189400
O        4.20900000       2.43007000      19.88626000      -0.00580300       0.00445500      -0.17971900
O        7.01499000       5.67015000      19.42826000       0.00144200      -3.53132200       2.91513700
O        1.40300000       0.00000000      19.65726000      -0.99892500       0.69104400       0.93068900
O        4.20900000       4.86013000      19.65726000       0.00154100       0.64816000       1.25492600
Pt       0.00000000       0.00000000      16.87326000      -0.02344200      -0.24557700       2.12893700
Pt       5.61200000       4.86013000      16.87326000      -0.50280400      -0.30680200       1.16035100
Pt       2.80600000       4.86013000      16.87326000       0.50645400      -0.34526200       1.16702100
Pt       4.20900000       2.43007000      16.87326000       0.01439200       0.15422200       0.25948200
Pt       1.40300000       2.43007000      16.87326000      -0.01603300       0.51503500       0.48180600
Pt       2.80600000       0.00000000      16.87326000       0.02163600       0.22179700       1.61982600
Pt       0.00000000       0.00000000      10.00000000       0.00201400      -0.00870700      -0.24852800
Pt       4.20900000       4.05011000      14.58218000      -0.00312200      -0.11177400      -0.36398400
Pt       2.80600000       0.00000000      10.00000000      -0.00208500      -0.00845400      -0.24956800
Pt       1.40300000       2.43007000      10.00000000      -0.00120900      -0.01652600      -0.19574900
Pt       4.20900000       2.43007000      10.00000000       0.00121000      -0.00232300      -0.20132600
Pt       2.80600000       4.86013000      10.00000000       0.01344500       0.00322400      -0.20981000
Pt       5.61200000       4.86013000      10.00000000      -0.01455200       0.00204500      -0.18924400
Pt       1.40300000       0.81002000      12.29109000      -0.00243900      -0.00661800       0.10067200
Pt       8.41799000       6.48017000      14.58218000       0.03882900       0.22989600      -0.67936400
Pt       4.20900000       0.81002000      12.29109000       0.00233600      -0.02317600       0.08694900
Pt       5.61200000       3.24009000      12.29109000       0.01742900      -0.05843500       0.07806700
Pt       4.20900000       5.67015000      12.29109000      -0.00168300      -0.00515500       0.14840500
Pt       7.01499000       5.67015000      12.29109000       0.00108700       0.03291000       0.13474900
Pt       5.61200000       1.62004000      14.58218000      -0.00753500       0.17949800      -0.51383600
Pt       2.80600000       1.62004000      14.58218000       0.01104000       0.03479800      -0.34594900
Pt       7.01499000       4.05011000      14.58218000       0.00431300       0.03282800      -0.17407400
Pt       2.80600000       3.24009000      12.29109000      -0.01833800      -0.03673400       0.10290500
Pt       5.61200000       6.48017000      14.58218000      -0.03839200       0.24709600      -0.69125200
36
Lattice="5.611995395 0.0 0.0 4.208996546 7.290195867 0.0 0.0 0.0 29.657262579" Properties=species:S:1:pos:R:3:forces:R:3 energy=-228.5661024 pbc="T T T"
C        2.80600000       2.43007000      18.49926000      -2.04137900       1.83060300      -1.59657900
C        1.40300000       0.00000000      18.49926000      -2.04137900       1.83060300      -1.59657900
C        4.20900000       0.81002000      18.27026000       1.38272500      -1.65537400      -2.74027100
C        4.20900000       4.86013000      18.49926000      -2.04137900       1.83060300      -1.59657900
C        5.61200000       3.24009000      18.27026000       1.38272500      -1.65537400      -2.74027100
C        7.01499000       5.67015000      18.27026000       1.38272500      -1.65537400      -2.74027100
O        4.20900000       0.81002000      19.42826000       1.57715800      -1.79708800       2.59932500
O        2.80600000       2.43007000      19.65726000      -1.12047100       1.44051000       0.72638200
O        1.40300000       0.00000000      19.65726000      -1.12047100       1.44051000       0.72638200
O        7.01499000       5.67015000      19.42826000       1.57715800      -1.79708800       2.59932500
O        4.20900000       4.86013000      19.65726000      -1.12047100       1.44051000       0.72638200
O        5.61200000       3.24009000      19.42826000       1.57715800      -1.79708800       2.59932500
Pt       0.00000000       0.00000000      16.87326000       0.56533500       0.14497300       1.37984100
Pt       5.61200000       4.86013000      16.87326000      -0.32976900      -0.13917600       0.95753500
Pt       2.80600000       4.86013000      16.87326000       0.56533500       0.14497300       1.37984100
Pt       4.20900000       2.43007000      16.87326000      -0.32976900      -0.13917600       0.95753500
Pt       1.40300000       2.43007000      16.87326000       0.56533500       0.14497300       1.37984100
Pt       2.80600000       0.00000000      16.87326000      -0.32976900      -0.13917600       0.95753500
Pt       0.00000000       0.00000000      10.00000000       0.01907100      -0.01087500      -0.18306200
Pt       4.20900000       4.05011000      14.58218000      -0.02671800      -0.03472500      -0.56618500
Pt       2.80600000       0.00000000      10.00000000      -0.02459700      -0.00939100      -0.17485100