58
Lattice="8.417993093 0.0 0.0 5.611995395 9.720261156 0.0 0.0 0.0 29.657262579" Properties=species:S:1:pos:R:3:forces:R:3 energy=-358.87412622 pbc="T T T"
C        2.80600000       2.43007000      18.49926000       0.00769900       0.01733200      -2.79340700
C        7.01499000       0.81002000      18.27026000      -0.00875100      -0.18623500      -3.08118200
C        7.01499000       4.05011000      18.27026000       0.36312000      -0.31212600      -2.75963900
C       11.22399000       6.48017000      18.27026000      -0.64572500      -0.04603700      -2.99851900
C        5.61200000       6.48017000      18.27026000       0.36762000       0.53093400      -2.81951100
O        7.01499000       0.81002000      19.42826000       0.00491100      -0.08351700       2.93682300
O        2.80600000       2.43007000      19.65726000      -0.00314600      -0.01482200       1.35994600
O       11.22399000       6.48017000      19.42826000      -0.12170600      -0.02780800       2.84090400
O        7.01499000       4.05011000      19.42826000       0.09229700      -0.03044400       2.75315900
O        5.61200000       6.48017000      19.42826000       0.07802000       0.09686300       2.69608300
Pt      11.22399000       6.48017000      14.58218000       0.00866700       0.02210800      -0.61776700
Pt       5.61200000       6.48017000      14.58218000      -0.03288000      -0.02460500      -0.69644100
Pt       8.41799000       6.48017000      14.58218000       0.00123900       0.02998500      -0.25384000
Pt      12.62699000       8.91024000      14.58218000      -0.00539900      -0.19343600      -0.46107100
Pt       7.01499000       8.91024000      14.58218000      -0.03185900       0.06900800      -0.17727800
Pt       9.82099000       8.91024000      14.58218000       0.02577200       0.08066200      -0.17333700
Pt       0.00000000       0.00000000      16.87326000       0.23611500       0.08076100       0.47413600
Pt       2.80600000       0.00000000      16.87326000       0.02881100      -0.51596100      -0.17727800
Pt       1.40300000       2.43007000      16.87326000       0.85267100      -0.09276600       1.06220300
Pt       4.20900000       2.43007000      16.87326000      -0.88335600      -0.15839100       1.04271400
Pt       7.01499000       2.43007000      16.87326000       0.01622100       0.08080700       0.64864600
Pt       7.01499000       4.05011000      14.58218000      -0.01019000      -0.11579700      -0.57614300
Pt       5.61200000       4.86013000      16.87326000       0.09312300      -0.14005900       0.69339800
Pt       8.41799000       4.86013000      16.87326000      -0.03134100      -0.07425000       0.36361900
Pt       4.20900000       7.29020000      16.87326000      -0.01233100      -0.06683600       0.71593100
Pt       7.01499000       7.29020000      16.87326000       0.13697300       0.39343800       0.50787900
Pt       9.82099000       7.29020000      16.87326000      -0.15119300       0.15408500       0.51163900
Pt       5.61200000       0.00000000      16.87326000      -0.24653600       0.09296300       0.45628300
Pt       2.80600000       4.86013000      16.87326000      -0.22706700       0.25393600       0.36888300
Pt       0.00000000       0.00000000      10.00000000       0.04171600       0.01309400      -0.11667500
Pt       5.61200000       1.62004000      14.58218000      -0.12295100       0.12454200      -0.30024600
Pt       2.80600000       0.00000000      10.00000000      -0.02947200      -0.01517500      -0.12174000
Pt       5.61200000       0.00000000      10.00000000      -0.01920000      -0.01865600      -0.08291500
Pt       1.40300000       2.43007000      10.00000000      -0.02052400      -0.02399400      -0.11288700
Pt       4.20900000       2.43007000      10.00000000       0.02506000      -0.00400900      -0.07022100
Pt       7.01499000       2.43007000      10.00000000      -0.00178100       0.02394100      -0.12805000
Pt       2.80600000       4.86013000      10.00000000       0.02162200      -0.02453200      -0.05678900
Pt       5.61200000       4.86013000      10.00000000      -0.00053200       0.01416200      -0.09222100
Pt       8.41799000       4.86013000      10.00000000      -0.02659600      -0.03985600      -0.05929800
Pt       4.20900000       7.29020000      10.00000000      -0.01195200       0.02517400      -0.10801500
Pt       7.01499000       7.29020000      10.00000000      -0.03305100       0.01776500      -0.09957000
Pt       9.82099000       7.29020000      10.00000000       0.04278800       0.00582100      -0.09504100
Pt       1.40300000       0.81002000      12.29109000       0.02869900      -0.02736800       0.03804700
Pt       4.20900000       0.81002000      12.29109000      -0.03603600      -0.01245800       0.05327900
Pt       7.01499000       0.81002000      12.29109000       0.00960500       0.02508100       0.01461100
Pt       2.80600000       3.24009000      12.29109000      -0.04498100      -0.02057800       0.13074400
Pt       5.61200000       3.24009000      12.29109000       0.06247200      -0.02923100       0.21278200
Pt       8.41799000       3.24009000      12.29109000       0.00980400      -0.06753100       0.10360800
Pt       4.20900000       5.67015000      12.29109000       0.03409700       0.02756100       0.16344700
Pt       7.01499000       5.67015000      12.29109000       0.05817800       0.04753300      -0.00398000
Pt       9.82099000       5.67015000      12.29109000      -0.07657800       0.00196100       0.04838500
Pt       5.61200000       8.10022000      12.29109000       0.00439200       0.06894200       0.14712700
Pt       8.41799000       8.10022000      12.29109000      -0.00050200      -0.04377000       0.02587800
Pt      11.22399000       8.10022000      12.29109000       0.00104200       0.00581200       0.20516700
Pt       8.41799000       1.62004000      14.58218000       0.13448800       0.15211700      -0.32028700
Pt       2.80600000       1.62004000      14.58218000      -0.00910600      -0.05779700      -0.59452700
Pt       9.82099000       4.05011000      14.58218000      -0.00478500      -0.01317000      -0.36059100
Pt       4.20900000       4.05011000      14.58218000       0.06230700       0.02482800      -0.26685600
58
Lattice="8.417993093 0.0 0.0 5.611995395 9.720261156 0.0 0.0 0.0 29.886262579" Properties=species:S:1:pos:R:3:forces:R:3 energy=-358.76920432 pbc="T T T"
C        9.82099000       8.91024000      18.27026000      -0.48798300      -0.14908400      -2.94208300
C       12.62699000       8.91024000      18.27026000       0.47006200      -0.31660600      -3.04691700
C        7.01499000       2.43007000      18.72826000      -0.38222800      -0.14547400       0.35517700
C        8.41799000       4.86013000      18.72826000       0.24101900       0.42390500       0.29390000
C        1.40300000       0.81002000      18.27026000       0.13047300       0.14566800      -3.07376900
O       12.62699000       8.91024000      19.42826000       0.06701000      -0.06342000       2.96680600
O        9.82099000       8.91024000      19.42826000      -0.06607700      -0.06746400       2.92027100
O        8.41799000       4.86013000      19.88626000       0.06350400       0.10972200      -0.12453300
O        7.01499000       2.43007000      19.88626000      -0.05665500      -0.13584300      -0.19446600
O        1.40300000       0.81002000      19.42826000      -0.00703000       0.07986400       3.10072800
Pt      11.22399000       6.48017000      14.58218000       0.00886500       0.01741900      -0.25505200
Pt       5.61200000       6.48017000      14.58218000       0.01757600      -0.02012200      -0.25254300
Pt       8.41799000       6.48017000      14.58218000      -0.01129200      -0.20887300      -0.28610400
Pt      12.62699000       8.91024000      14.58218000       0.10368300       0.03854100      -0.49512800
Pt       7.01499000       8.91024000      14.58218000      -0.00790000      -0.03469900      -0.43085900
Pt       9.82099000       8.91024000      14.58218000      -0.11168000       0.10490400      -0.55315000
Pt       0.00000000       0.00000000      16.87326000       0.06139900      -0.42031600       0.54250700
Pt       2.80600000       0.00000000      16.87326000       0.08435300       0.00713800       0.67704300
Pt       1.40300000       2.43007000      16.87326000       0.60321400      -0.02176800       0.39218200
Pt       4.20900000       2.43007000      16.87326000      -0.12897700       0.61865200      -0.30891800
Pt       7.01499000       2.43007000      16.87326000      -0.44032800       0.08522100       0.67010500
Pt       7.01499000       4.05011000      14.58218000       0.13673500      -0.06831100      -0.21681400
Pt       5.61200000       4.86013000      16.87326000      -0.62352500       0.30705400      -0.19713000
Pt       8.41799000       4.86013000      16.87326000       0.21821300       0.32859200       0.76861800
Pt       4.20900000       7.29020000      16.87326000       0.27174100      -0.31615900       0.52748600
Pt       7.01499000       7.29020000      16.87326000      -0.24715900      -0.35035900      -0.37480900
Pt       9.82099000       7.29020000      16.87326000       0.00794100       0.09832700       0.42997900
Pt       5.61200000       0.00000000      16.87326000      -0.16883800      -0.10248400       0.62540400
Pt       2.80600000       4.86013000      16.87326000       0.41612900      -0.06484000      -0.16976000
Pt       0.00000000       0.00000000      10.00000000       0.02450000       0.00624000      -0.08951500
Pt       5.61200000       1.62004000      14.58218000       0.11512400       0.03595800      -0.13956600
Pt       2.80600000       0.00000000      10.00000000       0.00205600      -0.00859900      -0.23833500
Pt       5.61200000       0.00000000      10.00000000      -0.02401300      -0.03320000      -0.04148300
Pt       1.40300000       2.43007000      10.00000000      -0.00531500      -0.00125900      -0.05349000
Pt       4.20900000       2.43007000      10.00000000       0.01415600      -0.08866300      -0.15927600
Pt       7.01499000       2.43007000      10.00000000       0.00116600       0.02789700      -0.04478300
Pt       2.80600000       4.86013000      10.00000000      -0.00149100       0.03114800      -0.04207200
Pt       5.61200000       4.86013000      10.00000000      -0.00494200       0.01491300      -0.10951100
Pt       8.41799000       4.86013000      10.00000000       0.00592700       0.02978900      -0.13396800
Pt       4.20900000       7.29020000      10.00000000       0.01143400      -0.02168700      -0.11291400
Pt       7.01499000       7.29020000      10.00000000       0.02814600       0.05737500      -0.15185700
Pt       9.82099000       7.29020000      10.00000000      -0.03118400       0.02152300      -0.14157600
Pt       1.40300000       0.81002000      12.29109000       0.10599600      -0.09058000       0.22055200
Pt       4.20900000       0.81002000      12.29109000      -0.07360900      -0.01557700       0.09217800
Pt       7.01499000       0.81002000      12.29109000      -0.05099200       0.01289800       0.25767700
Pt       2.80600000       3.24009000      12.29109000       0.08153000       0.03148200       0.03405900
Pt       5.61200000       3.24009000      12.29109000      -0.08529900       0.03750700       0.06698900
Pt       8.41799000       3.24009000      12.29109000      -0.01565800       0.11307700       0.21708000
Pt       4.20900000       5.67015000      12.29109000       0.06364900      -0.02472500       0.17714600
Pt       7.01499000       5.67015000      12.29109000       0.00289700       0.00921800       0.01489700
Pt       9.82099000       5.67015000      12.29109000      -0.07702600       0.08951200       0.09021500
Pt       5.61200000       8.10022000      12.29109000      -0.00772300      -0.07823900       0.07105700
Pt       8.41799000       8.10022000      12.29109000       0.00577900       0.01881800      -0.04543800
Pt      11.22399000       8.10022000      12.29109000      -0.00200300      -0.13070600       0.03521700
Pt       8.41799000       1.62004000      14.58218000      -0.16319700       0.05100700      -0.38686600
Pt       2.80600000       1.62004000      14.58218000       0.03731600       0.02828500      -0.44699000
Pt       9.82099000       4.05011000      14.58218000      -0.10358500      -0.03906000      -0.05839200
Pt       4.20900000       4.05011000      14.58218000      -0.01588200       0.03646100      -0.22920400
58
Lattice="8.417993093 0.0 0.0 5.611995395 9.720261156 0.0 0.0 0.0 29.657262579" Properties=species:S:1:pos:R:3:forces:R:3 energy=-358.48171948 pbc="T T T"
C        8.41799000       7.29020000      18.49926000       0.90953100       0.06571200      -2.85474600
C        7.01499000       0.81002000      18.27026000       0.18833600      -0.48910700      -3.21374400
C        5.61200000       7.29020000      18.49926000      -0.88703400       0.00314600      -2.80637200
C        2.80600000       2.43007000      18.49926000      -0.58342800      -0.11868300      -2.73005400
C        5.61200000       3.24009000      18.27026000       0.12498300       0.63116800      -3.02076700
O        7.01499000       0.81002000      19.42826000       0.05313800      -0.14501600       2.95147500
O        8.41799000       7.29020000      19.65726000       0.02381200      -0.02222600       1.31045900
O        2.80600000       2.43007000      19.65726000      -0.00374100       0.00102300       1.30527000
O        5.61200000       7.29020000      19.65726000      -0.02443200      -0.00556100       1.26330600
O        5.61200000       3.24009000      19.42826000       0.01471500       0.15916500       2.86131100
Pt      11.22399000       6.48017000      14.58218000       0.01295000       0.18094500       0.12959400
Pt       5.61200000       6.48017000      14.58218000       0.14631200      -0.11139400      -0.37043900
Pt       8.41799000       6.48017000      14.58218000      -0.16368000       0.03829400      -0.44594800
Pt      12.62699000       8.91024000      14.58218000      -0.08154100      -0.10455600      -0.57328600
Pt       7.01499000       8.91024000      14.58218000      -0.06198200       0.06705300      -0.30865900
Pt       9.82099000       8.91024000      14.58218000       0.11145400       0.09018300      -0.19818100
Pt       0.00000000       0.00000000      16.87326000       0.03891600       0.44419600       0.47811000
Pt       2.80600000       0.00000000      16.87326000       0.13345900       0.09223300      -0.31138800
Pt       1.40300000       2.43007000      16.87326000       0.58431000       0.09806700       1.18472600
Pt       4.20900000       2.43007000      16.87326000      -0.77811000      -0.13656500       1.51415700
Pt       7.01499000       2.43007000      16.87326000       0.36552800       0.24971200       0.83951600
Pt       7.01499000       4.05011000      14.58218000       0.09369500      -0.06053100      -0.27323900
Pt       5.61200000       4.86013000      16.87326000       0.00874200      -0.26495600       0.44340900
Pt       8.41799000       4.86013000      16.87326000       0.36872100      -0.33125900      -0.25625100
Pt       4.20900000       7.29020000      16.87326000       0.29729200      -0.45633600       1.20940200
Pt       7.01499000       7.29020000      16.87326000      -0.02025500      -0.18664100       2.34084000
Pt       9.82099000       7.29020000      16.87326000      -0.26415600      -0.09379400       1.28779400
Pt       5.61200000       0.00000000      16.87326000      -0.09650900      -0.34505500       0.46888000
Pt       2.80600000       4.86013000      16.87326000      -0.37340100       0.55255000      -0.23720200
Pt       0.00000000       0.00000000      10.00000000      -0.00704400       0.00113500      -0.13160400
Pt       5.61200000       1.62004000      14.58218000      -0.19958200       0.06744700      -0.57102400
Pt       2.80600000       0.00000000      10.00000000       0.01201500      -0.03472600      -0.05874300
Pt       5.61200000       0.00000000      10.00000000      -0.00667200      -0.02288400      -0.11130300
Pt       1.40300000       2.43007000      10.00000000       0.01511800       0.01783400      -0.08372100
Pt       4.20900000       2.43007000      10.00000000      -0.02238200       0.01814600      -0.08856400
Pt       7.01499000       2.43007000      10.00000000       0.00060100       0.00473100      -0.07127700
Pt       2.80600000       4.86013000      10.00000000       0.00630100      -0.06071100      -0.09738500
Pt       5.61200000       4.86013000      10.00000000       0.05019400       0.00213600      -0.09265100
Pt       8.41799000       4.86013000      10.00000000      -0.04758700      -0.00486500      -0.08980600
Pt       4.20900000       7.29020000      10.00000000       0.00570800       0.03477200      -0.10233100
Pt       7.01499000       7.29020000      10.00000000      -0.04757600       0.00737500      -0.13895000
Pt       9.82099000       7.29020000      10.00000000       0.03509500      -0.01378100      -0.07626700
Pt       1.40300000       0.81002000      12.29109000      -0.04227200      -0.08618300      -0.05386900
Pt       4.20900000       0.81002000      12.29109000      -0.01378800      -0.02164300       0.07581200
Pt       7.01499000       0.81002000      12.29109000       0.04209400      -0.05192800       0.04644300
Pt       2.80600000       3.24009000      12.29109000       0.00983700       0.00456600       0.21941100
Pt       5.61200000       3.24009000      12.29109000      -0.05303700       0.01785800       0.26309000
Pt       8.41799000       3.24009000      12.29109000       0.03662000      -0.04063100       0.19278500
Pt       4.20900000       5.67015000      12.29109000      -0.02351000       0.00699500       0.03152000
Pt       7.01499000       5.67015000      12.29109000      -0.00534100       0.09439500       0.05326000
Pt       9.82099000       5.67015000      12.29109000       0.03060200      -0.03834200       0.00827800
Pt       5.61200000       8.10022000      12.29109000       0.04520700       0.09458400       0.12600600
Pt       8.41799000       8.10022000      12.29109000      -0.03028900      -0.06769600       0.06865900
Pt      11.22399000       8.10022000      12.29109000      -0.01271500      -0.03180700       0.24133900
Pt       8.41799000       1.62004000      14.58218000       0.07978700       0.21204400      -0.23527400
Pt       2.80600000       1.62004000      14.58218000       0.11087600       0.01322600      -0.47023000
Pt       9.82099000       4.05011000      14.58218000      -0.06580200       0.03281200      -0.30236500
Pt       4.20900000       4.05011000      14.58218000      -0.04008500       0.04337100      -0.53921200
58
Lattice="8.417993093 0.0 0.0 5.611995395 9.720261156 0.0 0.0 0.0 29.886262579" Properties=species:S:1:pos:R:3:forces:R:3 energy=-355.44768842 pbc="T T T"
C        4.20900000       0.81002000      18.27026000       0.24655800      -0.60998700      -3.20244500
C        7.01499000       7.29020000      18.72826000      -0.01575400       0.09819700       0.33708200
C        4.20900000       4.86013000      18.49926000       2.94866500       2.15144500      -2.42481900
C        2.80600000       3.24009000      18.27026000      -0.40779000      -3.54667900      -3.14086900
C        9.82099000       4.86013000      18.49926000      -2.96614800       2.09387900      -2.45167100
O        7.01499000       7.29020000      19.88626000       0.00631600      -0.02657000      -0.17413000
O        4.20900000       0.81002000      19.42826000       0.05735700      -0.12912800       3.00769800
O        2.80600000       3.24009000      19.42826000      -0.05719100      -3.46028900       2.72854700
O        4.20900000       4.86013000      19.65726000       1.08545100       1.37489800       1.13494400
O        9.82099000       4.86013000      19.65726000      -1.09838700       1.40963500       1.12516000
Pt      11.22399000       6.48017000      14.58218000      -0.01839500      -0.19801400      -0.17049100
Pt       5.61200000       6.48017000      14.58218000       0.17851400       0.13072200      -0.28956400
Pt       8.41799000       6.48017000      14.58218000      -0.16047600       0.09436800      -0.21061300
Pt      12.62699000       8.91024000      14.58218000      -0.11849600       0.08672800      -0.19773300
Pt       7.01499000       8.91024000      14.58218000       0.10863400      -0.08383400      -0.13765600
Pt       9.82099000       8.91024000      14.58218000       0.03871400      -0.10255500      -0.42643900
Pt       0.00000000       0.00000000      16.87326000      -0.26290700       0.32625600      -0.18457900
Pt       2.80600000       0.00000000      16.87326000      -0.00277100      -0.13192600       0.44315200
Pt       1.40300000       2.43007000      16.87326000      -0.42839400      -0.46230500       0.61608900
Pt       4.20900000       2.43007000      16.87326000       0.30037200      -0.29476900       0.70460700
Pt       7.01499000       2.43007000      16.87326000       0.33654300      -0.07317400      -0.26548100
Pt       7.01499000       4.05011000      14.58218000       0.01559100       0.24336300       0.26359500
Pt       5.61200000       4.86013000      16.87326000      -0.35820200      -0.38639900       1.20662800
Pt       8.41799000       4.86013000      16.87326000       0.35963100      -0.35882800       1.26609800
Pt       4.20900000       7.29020000      16.87326000      -0.24452700       0.74942800      -0.22217000
Pt       7.01499000       7.29020000      16.87326000       0.01067500       0.17489200       0.81758900
Pt       9.82099000       7.29020000      16.87326000       0.23786400       0.35331400      -0.28639300
Pt       5.61200000       0.00000000      16.87326000       0.30626800      -0.20787000       0.61889600
Pt       2.80600000       4.86013000      16.87326000      -0.00909400       0.80754700       1.74693300
Pt       0.00000000       0.00000000      10.00000000       0.02371400      -0.02694100      -0.08848800
Pt       5.61200000       1.62004000      14.58218000      -0.05669200       0.09544400      -0.29324400
Pt       2.80600000       0.00000000      10.00000000       0.02863300       0.01694900      -0.10559700
Pt       5.61200000       0.00000000      10.00000000      -0.06027100       0.03286600      -0.15061700
Pt       1.40300000       2.43007000      10.00000000       0.06049500       0.05244400      -0.17560300
Pt       4.20900000       2.43007000      10.00000000      -0.07669100      -0.03589700      -0.12641300
Pt       7.01499000       2.43007000      10.00000000       0.02515100      -0.06403100      -0.13538200
Pt       2.80600000       4.86013000      10.00000000       0.03261700      -0.07009400      -0.19940800
Pt       5.61200000       4.86013000      10.00000000       0.00767800       0.00910600      -0.01894200
Pt       8.41799000       4.86013000      10.00000000      -0.02257700      -0.02170900      -0.05395200
Pt       4.20900000       7.29020000      10.00000000      -0.03935800       0.01791800      -0.10832600
Pt       7.01499000       7.29020000      10.00000000       0.00902500      -0.01232300      -0.11335900
Pt       9.82099000       7.29020000      10.00000000       0.01932800       0.02202600      -0.06086000
Pt       1.40300000       0.81002000      12.29109000      -0.07844500       0.05300200       0.06079200
Pt       4.20900000       0.81002000      12.29109000       0.06061000      -0.01137800       0.20557900
Pt       7.01499000       0.81002000      12.29109000       0.00328200      -0.10000800       0.00818700
Pt       2.80600000       3.24009000      12.29109000       0.00059200       0.04580200       0.15292100
Pt       5.61200000       3.24009000      12.29109000       0.04024500      -0.09479600       0.07274400
Pt       8.41799000       3.24009000      12.29109000      -0.02568900      -0.14645300       0.11674800
Pt       4.20900000       5.67015000      12.29109000      -0.10577800       0.07043400       0.03913400
Pt       7.01499000       5.67015000      12.29109000      -0.01298000       0.04741600       0.28884300
Pt       9.82099000       5.67015000      12.29109000       0.11434700      -0.01791000       0.13348400
Pt       5.61200000       8.10022000      12.29109000      -0.00711000      -0.05211200      -0.00261200
Pt       8.41799000       8.10022000      12.29109000      -0.08302200       0.04411300       0.17672900
Pt      11.22399000       8.10022000      12.29109000       0.07014100       0.06103500       0.10569000
Pt       8.41799000       1.62004000      14.58218000       0.10031200       0.08221200      -0.12164400
Pt       2.80600000       1.62004000      14.58218000      -0.08647400      -0.07226200      -0.68124000
Pt       9.82099000       4.05011000      14.58218000       0.06584300       0.11097000      -0.63813500
Pt       4.20900000       4.05011000      14.58218000      -0.09554500      -0.05816800      -0.51899800
58
Lattice="8.417993093 0.0 0.0 5.611995395 9.720261156 0.0 0.0 0.0 29.657262579" Properties=species:S:1:pos:R:3:forces:R:3 energy=-358.21659921 pbc="T T T"
C        9.82099000       4.86013000      18.49926000      -0.27909300       0.57520400      -2.86558200
C        1.40300000       0.00000000      18.49926000       0.00718700       0.06110700      -2.79347100
C        2.80600000       2.43007000      18.49926000      -0.06290500       0.24892700      -2.61820800
C        5.61200000       7.29020000      18.49926000      -0.25693500      -0.42065900      -2.86801100
C        5.61200000       1.62004000      18.27026000       0.53633700      -0.17263900      -3.14239300
O        1.40300000       0.00000000      19.65726000      -0.00218500      -0.01700500       1.31374300
O        9.82099000       4.86013000      19.65726000      -0.04470500       0.06396500       1.38875700
O        5.61200000       7.29020000      19.65726000      -0.05111900      -0.10293400       1.38025300
O        2.80600000       2.43007000      19.65726000       0.10371100      -0.04209900       1.16356600
O        5.61200000       1.62004000      19.42826000       0.09068900      -0.04680800       2.96176900
Pt      11.22399000       6.48017000      14.58218000       0.13219300       0.10358900      -0.20407900
Pt       5.61200000       6.48017000      14.58218000       0.00361400      -0.04394200      -0.57897100
Pt       8.41799000       6.48017000      14.58218000      -0.16560700       0.09702400      -0.17319400
Pt      12.62699000       8.91024000      14.58218000       0.05616500       0.11779900      -0.19252400
Pt       7.01499000       8.91024000      14.58218000       0.04553600      -0.11035300      -0.69536300
Pt       9.82099000       8.91024000      14.58218000      -0.10201700       0.10912400      -0.00663200
Pt       0.00000000       0.00000000      16.87326000       0.49069400       0.19840600       1.12171900
Pt       2.80600000       0.00000000      16.87326000      -0.48554400      -0.74685600       1.07856300
Pt       1.40300000       2.43007000      16.87326000       0.30874500      -0.09206700       1.02167800
Pt       4.20900000       2.43007000      16.87326000      -0.37448600       0.03090000       1.56946100
Pt       7.01499000       2.43007000      16.87326000      -0.07362100       0.14494100       0.47108800
Pt       7.01499000       4.05011000      14.58218000       0.09405700       0.09736000      -0.03671700
Pt       5.61200000       4.86013000      16.87326000       0.17254700      -0.01847900      -0.32338200
Pt       8.41799000       4.86013000      16.87326000       0.31100900      -0.07253600       1.22209800
Pt       4.20900000       7.29020000      16.87326000       0.31025300      -0.08859200       1.25063200
Pt       7.01499000       7.29020000      16.87326000      -0.36088000      -0.53414300       1.17586300
Pt       9.82099000       7.29020000      16.87326000       0.10833900       0.39657700      -0.21351200
Pt       5.61200000       0.00000000      16.87326000      -0.04870900      -0.19289700       0.51614300
Pt       2.80600000       4.86013000      16.87326000      -0.39089800       0.36656600       1.14834600
Pt       0.00000000       0.00000000      10.00000000       0.03086700      -0.06031300      -0.09356500
Pt       5.61200000       1.62004000      14.58218000      -0.13939700       0.13845400      -0.52160400
Pt       2.80600000       0.00000000      10.00000000       0.03921800       0.00991500      -0.12646200
Pt       5.61200000       0.00000000      10.00000000      -0.05704200       0.00537100      -0.08338800
Pt       1.40300000       2.43007000      10.00000000      -0.01510300       0.02250400      -0.07934500
Pt       4.20900000       2.43007000      10.00000000      -0.03135300      -0.04319300      -0.08913600
Pt       7.01499000       2.43007000      10.00000000       0.04550400      -0.00547700      -0.09109800
Pt       2.80600000       4.86013000      10.00000000       0.03302400      -0.00664200      -0.08915500
Pt       5.61200000       4.86013000      10.00000000       0.00302000       0.01815000      -0.04208900
Pt       8.41799000       4.86013000      10.00000000      -0.03113900      -0.01587000      -0.10323000
Pt       4.20900000       7.29020000      10.00000000       0.06107000       0.02199600      -0.13531500
Pt       7.01499000       7.29020000      10.00000000      -0.04033400      -0.00163100      -0.13345900
Pt       9.82099000       7.29020000      10.00000000      -0.02692300      -0.01433400      -0.05758800
Pt       1.40300000       0.81002000      12.29109000      -0.01530900      -0.00669800       0.06152800
Pt       4.20900000       0.81002000      12.29109000       0.01975600      -0.04711800       0.20654200
Pt       7.01499000       0.81002000      12.29109000       0.03029800      -0.05410900       0.04134800
Pt       2.80600000       3.24009000      12.29109000       0.01128500       0.05242500       0.16835600