64
Lattice="8.417993093 0.0 0.0 5.611995395 9.720261156 0.0 0.0 0.0 29.886262579" Properties=species:S:1:pos:R:3:forces:R:3 energy=-402.395776 pbc="T T T"
C        7.01499000       5.67015000      18.27026000      -0.37044700       0.22247200      -3.40909000
C        5.61200000       2.43007000      18.49926000       2.51350400       2.43401100      -2.09573500
C        7.01499000       0.00000000      18.49926000       0.23421300       0.57039200      -2.56146700
C        9.82099000       4.86013000      18.49926000      -1.61457400       2.10296800      -2.23208500
C        1.40300000       0.81002000      18.27026000      -0.32597900      -0.33548400      -2.81445600
C        2.80600000       3.24009000      18.27026000       0.73420400      -0.78802900      -2.91803800
C        4.20900000       0.81002000      18.27026000      -0.97368300      -2.39252500      -2.76895000
C        4.20900000       7.29020000      18.72826000      -0.06865800      -1.05740500       0.65802500
O        5.61200000       2.43007000      19.65726000       1.07746300       1.48014900       0.92488400
O        1.40300000       0.81002000      19.42826000      -0.09125700      -0.05153000       2.76035200
O        7.01499000       5.67015000      19.42826000      -0.09129600       0.02423000       3.11649600
O        4.20900000       0.81002000      19.42826000      -1.54173900      -1.85022400       2.63501600
O        2.80600000       3.24009000      19.42826000       1.62379800      -1.66452000       2.64925900
O        9.82099000       4.86013000      19.65726000      -1.13811100       1.41914800       0.98417500
O        7.01499000       0.00000000      19.65726000       0.03371800       0.69137100       1.09683000
O        4.20900000       7.29020000      19.88626000      -0.01028100      -0.70801000      -0.32673100
Pt      12.62699000       8.91024000      14.58218000      -0.03476800      -0.08719000      -0.38884100
Pt       7.01499000       8.91024000      14.58218000      -0.01314600      -0.01783000      -0.09642400
Pt       9.82099000       8.91024000      14.58218000       0.02565200       0.08481000      -0.08239300
Pt       0.00000000       0.00000000      16.87326000      -0.34162200      -0.10093700       1.37913600
Pt       2.80600000       0.00000000      16.87326000       0.07043900      -0.53671000       0.84204200
Pt       5.61200000       0.00000000      16.87326000       0.30725800      -0.61538100       1.14451000
Pt       1.40300000       2.43007000      16.87326000      -0.29884500      -0.05202500       0.57379400
Pt       7.01499000       2.43007000      16.87326000      -0.68339000       0.19624100       0.96952400
Pt       2.80600000       4.86013000      16.87326000      -0.40447300       0.21860000       1.16973900
Pt       5.61200000       4.86013000      16.87326000       0.27363300       0.26512700       0.30223300
Pt       8.41799000       4.86013000      16.87326000       0.58156300      -0.11111300       1.50558500
Pt       4.20900000       7.29020000      16.87326000      -0.13915900      -0.46162700       0.51849300
Pt       7.01499000       7.29020000      16.87326000       0.34180300      -0.12569400       0.34966200
Pt       8.41799000       6.48017000      14.58218000       0.02260600       0.00826900      -0.58031900
Pt       4.20900000       2.43007000      16.87326000       0.52857400       0.50919900       1.15995000
Pt       9.82099000       7.29020000      16.87326000      -0.18178600       0.29441700      -0.39665400
Pt       0.00000000       0.00000000      10.00000000       0.01385700      -0.02717300      -0.13382200
Pt       7.01499000       4.05011000      14.58218000       0.16890000       0.04593100      -0.32474100
Pt       2.80600000       0.00000000      10.00000000       0.02831300       0.00209300      -0.13516000
Pt       5.61200000       0.00000000      10.00000000      -0.04422800       0.01782100      -0.17807700
Pt       1.40300000       2.43007000      10.00000000      -0.04827800      -0.00394300      -0.14139100
Pt       4.20900000       2.43007000      10.00000000       0.00019000      -0.04501300      -0.16591000
Pt       7.01499000       2.43007000      10.00000000       0.04362300       0.03175900      -0.16197400
Pt       2.80600000       4.86013000      10.00000000      -0.00885800       0.01458600      -0.05369200
Pt       5.61200000       4.86013000      10.00000000      -0.00185400       0.04493300      -0.06104600
Pt       8.41799000       4.86013000      10.00000000       0.00361800      -0.05396500      -0.24954400
Pt       4.20900000       7.29020000      10.00000000       0.00027800       0.02758900      -0.22111300
Pt       7.01499000       7.29020000      10.00000000      -0.01377200      -0.01720000      -0.18111000
Pt       9.82099000       7.29020000      10.00000000       0.02291800       0.00045100      -0.16721200
Pt       1.40300000       0.81002000      12.29109000      -0.03958600       0.00427600       0.12021100
Pt       4.20900000       0.81002000      12.29109000       0.05168800      -0.05089900       0.19611000
Pt      11.22399000       6.48017000      14.58218000       0.20861600      -0.10503700      -0.11925100
Pt       7.01499000       0.81002000      12.29109000       0.01703200      -0.03140100       0.02653100
Pt       5.61200000       3.24009000      12.29109000      -0.03460500      -0.06235000       0.11338500
Pt       8.41799000       3.24009000      12.29109000      -0.01755800       0.06194400       0.11637900
Pt       4.20900000       5.67015000      12.29109000      -0.05264300       0.12886600       0.17486800
Pt       7.01499000       5.67015000      12.29109000       0.13560600      -0.00924300       0.13692900
Pt       9.82099000       5.67015000      12.29109000      -0.07632600       0.05607400       0.08263000
Pt       5.61200000       8.10022000      12.29109000      -0.00309000      -0.09355200       0.05874700
Pt       8.41799000       8.10022000      12.29109000      -0.01619400      -0.01429700       0.05764500
Pt      11.22399000       8.10022000      12.29109000       0.01419700      -0.04251700      -0.01053600
Pt       8.41799000       1.62004000      14.58218000      -0.01300600       0.25204300      -0.24019200
Pt       2.80600000       1.62004000      14.58218000       0.12175800       0.18146900      -0.83302000
Pt       5.61200000       1.62004000      14.58218000      -0.08894000       0.05767900      -0.76167300
Pt       9.82099000       4.05011000      14.58218000      -0.22751300      -0.05600900      -0.58418200
Pt       4.20900000       4.05011000      14.58218000       0.03075500       0.02074000      -0.09026600
Pt       2.80600000       3.24009000      12.29109000       0.00467800      -0.06571600       0.07816500
Pt       5.61200000       6.48017000      14.58218000      -0.22478900       0.16488800      -0.41621100
64
Lattice="8.417993093 0.0 0.0 5.611995395 9.720261156 0.0 0.0 0.0 29.886262579" Properties=species:S:1:pos:R:3:forces:R:3 energy=-402.85181798 pbc="T T T"
C        8.41799000       8.10022000      18.27026000       0.45236900      -0.13681600      -3.13374700
C        1.40300000       0.81002000      18.27026000      -1.50177600      -2.13617100      -3.03841500
C        7.01499000       5.67015000      18.27026000      -0.66014000       0.29956500      -2.76396900
C        5.61200000       0.00000000      18.72826000       0.19993600       0.04188200       0.55924600
C        4.20900000       5.67015000      18.27026000      -0.01430400       0.36678800      -3.02775000
C        9.82099000       4.86013000      18.49926000       1.90079700       2.33586600      -1.75778700
C        8.41799000       3.24009000      18.27026000      -2.04013700      -1.98939700      -2.94440200
C        2.80600000       2.43007000      18.49926000       2.90753400       1.56276200      -2.12382400
O        1.40300000       0.81002000      19.42826000      -1.66736900      -1.78942900       2.76283400
O        4.20900000       5.67015000      19.42826000      -0.04850400       0.04043500       2.86286600
O        8.41799000       8.10022000      19.42826000       0.13789200      -0.02887300       2.92525100
O        8.41799000       3.24009000      19.42826000      -1.65715400      -1.78658600       2.70182300
O        9.82099000       4.86013000      19.65726000       1.06995700       1.48112700       0.71940900
O        5.61200000       0.00000000      19.88626000      -0.02208900       0.00498700      -0.29549300
O        7.01499000       5.67015000      19.42826000       0.00961400      -0.01996600       2.62393300
O        2.80600000       2.43007000      19.65726000       1.16532100       1.32191300       0.98852700
Pt      12.62699000       8.91024000      14.58218000      -0.02304400       0.04692500      -0.05236200
Pt       7.01499000       8.91024000      14.58218000      -0.06779100      -0.22891900      -0.57045500
Pt       9.82099000       8.91024000      14.58218000       0.06403600       0.18333900      -0.34008100
Pt       0.00000000       0.00000000      16.87326000       0.11467000      -0.22546500       0.47301800
Pt       2.80600000       0.00000000      16.87326000      -0.09487800      -0.35021000       0.49181500
Pt       5.61200000       0.00000000      16.87326000       0.35738600       0.05075100       0.62375900
Pt       1.40300000       2.43007000      16.87326000       0.37776900      -0.26832400       0.77829300
Pt       7.01499000       2.43007000      16.87326000      -0.08455900       0.20320600       0.47227800
Pt       2.80600000       4.86013000      16.87326000      -0.45844800       0.28739300       1.30948400
Pt       5.61200000       4.86013000      16.87326000      -0.09133300      -0.03399500       0.78813100
Pt       8.41799000       4.86013000      16.87326000       0.31798400       0.17391000       1.12697000
Pt       4.20900000       7.29020000      16.87326000       0.01025900       0.05038700       0.29804900
Pt       7.01499000       7.29020000      16.87326000      -0.17175800       0.07323400       0.74203200
Pt       8.41799000       6.48017000      14.58218000       0.04095800      -0.21658300      -0.60321100
Pt       4.20900000       2.43007000      16.87326000      -0.46149500      -0.13044800       1.06377100
Pt       9.82099000       7.29020000      16.87326000      -0.01630200       0.36232600       0.29281000
Pt       0.00000000       0.00000000      10.00000000       0.06152700      -0.01995100      -0.13440100
Pt       7.01499000       4.05011000      14.58218000      -0.08299200       0.16844800      -0.40745100
Pt       2.80600000       0.00000000      10.00000000      -0.07015600       0.01524900      -0.17977500
Pt       5.61200000       0.00000000      10.00000000       0.00770400      -0.01213900      -0.17128500
Pt       1.40300000       2.43007000      10.00000000       0.00705700       0.01497400      -0.18863800
Pt       4.20900000       2.43007000      10.00000000       0.00766300      -0.02092100      -0.13444200
Pt       7.01499000       2.43007000      10.00000000      -0.00589600      -0.00997400      -0.16475800
Pt       2.80600000       4.86013000      10.00000000      -0.00306100       0.01804500      -0.14008800
Pt       5.61200000       4.86013000      10.00000000       0.02588400       0.00707600      -0.14863800
Pt       8.41799000       4.86013000      10.00000000      -0.03563700       0.00537500      -0.10495400
Pt       4.20900000       7.29020000      10.00000000       0.00128600      -0.04673500      -0.09569100
Pt       7.01499000       7.29020000      10.00000000       0.04229800      -0.03999700      -0.21542600
Pt       9.82099000       7.29020000      10.00000000      -0.03225100       0.04364000      -0.15013500
Pt       1.40300000       0.81002000      12.29109000       0.01932200       0.11158100       0.09401000
Pt       4.20900000       0.81002000      12.29109000       0.02658900      -0.09682100       0.08086800
Pt      11.22399000       6.48017000      14.58218000      -0.11001800       0.12701500      -0.45352800
Pt       7.01499000       0.81002000      12.29109000      -0.06007000      -0.02786300       0.10314700
Pt       5.61200000       3.24009000      12.29109000      -0.02003300      -0.03814200       0.11241600
Pt       8.41799000       3.24009000      12.29109000       0.05259000      -0.08922100       0.05713000
Pt       4.20900000       5.67015000      12.29109000      -0.01366400      -0.06845100       0.05790300
Pt       7.01499000       5.67015000      12.29109000      -0.02102400       0.02597300       0.20709900
Pt       9.82099000       5.67015000      12.29109000       0.05851200       0.03888600       0.11845700
Pt       5.61200000       8.10022000      12.29109000       0.00069200       0.01344500       0.08186600
Pt       8.41799000       8.10022000      12.29109000      -0.06168700       0.05385100       0.13142800
Pt      11.22399000       8.10022000      12.29109000       0.03244000      -0.00034400       0.00091700
Pt       8.41799000       1.62004000      14.58218000       0.06669700       0.09106000      -0.52913800
Pt       2.80600000       1.62004000      14.58218000      -0.07994700      -0.14443000      -0.53645100
Pt       5.61200000       1.62004000      14.58218000       0.00983200       0.04222000       0.05705100
Pt       9.82099000       4.05011000      14.58218000       0.00115700      -0.07590000      -0.49656200
Pt       4.20900000       4.05011000      14.58218000       0.06039300       0.16776600      -0.26828700
Pt       2.80600000       3.24009000      12.29109000      -0.02888700      -0.02870900      -0.01016300
Pt       5.61200000       6.48017000      14.58218000       0.09828000       0.22937800      -0.52528000
64
Lattice="8.417993093 0.0 0.0 5.611995395 9.720261156 0.0 0.0 0.0 29.657262579" Properties=species:S:1:pos:R:3:forces:R:3 energy=-400.52921517 pbc="T T T"
C        9.82099000       4.05011000      18.27026000      -0.48948400       0.31003300      -2.42542800
C        5.61200000       3.24009000      18.27026000      -0.00267100      -3.90264700      -2.61191900
C        7.01499000       4.86013000      18.49926000       2.41656700       2.48092900      -1.95574000
C        2.80600000       1.62004000      18.27026000       1.08402100      -0.31138100      -2.36508900
C        7.01499000       8.91024000      18.27026000      -0.00423100      -1.02232200      -2.76798700
C        4.20900000       4.86013000      18.49926000      -0.22497600       0.32971700      -1.45639800
C       11.22399000       6.48017000      18.27026000      -1.04011800       2.80013600      -3.03608600
C        8.41799000       1.62004000      18.27026000      -1.08651900      -0.30548100      -2.42567700
O        5.61200000       3.24009000      19.42826000       0.03799000      -3.52581200       2.59784700
O        7.01499000       8.91024000      19.42826000       0.00365300      -0.20325800       2.74546400
O        9.82099000       4.05011000      19.42826000       0.01193700       0.06216200       2.47046400
O       11.22399000       6.48017000      19.42826000      -1.64803100       1.89890500       2.75985300
O        4.20900000       4.86013000      19.65726000       0.01850100      -0.04864300       0.43068500
O        2.80600000       1.62004000      19.42826000       0.14588700       0.02220500       2.57249700
O        7.01499000       4.86013000      19.65726000       1.09060500       1.31918900       0.77668600
O        8.41799000       1.62004000      19.42826000      -0.14808200       0.03236700       2.58089900
Pt      12.62699000       8.91024000      14.58218000       0.05593500      -0.00455000      -0.28456300
Pt       7.01499000       8.91024000      14.58218000       0.00577100      -0.03452300      -0.72770500
Pt       9.82099000       8.91024000      14.58218000      -0.05754800       0.02729700      -0.25066500
Pt       0.00000000       0.00000000      16.87326000      -0.37905800      -0.21776600       0.75326500
Pt       2.80600000       0.00000000      16.87326000       0.36208900      -0.25867000       0.76753600
Pt       5.61200000       0.00000000      16.87326000       0.01012900      -0.31760100      -0.44145500
Pt       1.40300000       2.43007000      16.87326000      -0.01285700       0.03798400       0.54058400
Pt       7.01499000       2.43007000      16.87326000      -0.18969200      -0.69051500       0.49097200
Pt       2.80600000       4.86013000      16.87326000       0.24249900      -0.20230400       1.28129500
Pt       5.61200000       4.86013000      16.87326000       0.01251400       0.68186900       1.83639800
Pt       8.41799000       4.86013000      16.87326000      -0.51816600       0.12403700       1.55173600
Pt       4.20900000       7.29020000      16.87326000      -0.38299100       0.59601400       0.39197300
Pt       7.01499000       7.29020000      16.87326000       0.11053600       0.57411100       0.29562600
Pt       8.41799000       6.48017000      14.58218000       0.01419400      -0.01154700      -0.28318500
Pt       4.20900000       2.43007000      16.87326000       0.21428400      -0.76868100       0.44828500
Pt       9.82099000       7.29020000      16.87326000       0.33653500       0.25631800       0.47820300
Pt       0.00000000       0.00000000      10.00000000       0.00272900       0.00483100      -0.20688500
Pt       7.01499000       4.05011000      14.58218000      -0.11171300       0.07537800      -0.69297700
Pt       2.80600000       0.00000000      10.00000000       0.00395700       0.01588700      -0.19830500
Pt       5.61200000       0.00000000      10.00000000       0.00366100      -0.01162200      -0.17920400
Pt       1.40300000       2.43007000      10.00000000       0.01004500      -0.04713700      -0.12701700
Pt       4.20900000       2.43007000      10.00000000       0.02649900      -0.02172200      -0.14870900
Pt       7.01499000       2.43007000      10.00000000      -0.03224800      -0.02069000      -0.19109700
Pt       2.80600000       4.86013000      10.00000000      -0.00508800      -0.00292400      -0.12365400
Pt       5.61200000       4.86013000      10.00000000      -0.02904600      -0.02006000      -0.07398900
Pt       8.41799000       4.86013000      10.00000000       0.03524200       0.00626000      -0.06315700
Pt       4.20900000       7.29020000      10.00000000       0.04109100      -0.01389000      -0.12217400
Pt       7.01499000       7.29020000      10.00000000      -0.01911400       0.06564700      -0.08792300
Pt       9.82099000       7.29020000      10.00000000      -0.03006500       0.00443300      -0.14806500
Pt       1.40300000       0.81002000      12.29109000      -0.01238900      -0.07736200       0.06151000
Pt       4.20900000       0.81002000      12.29109000      -0.00270500      -0.04266200       0.03198700
Pt      11.22399000       6.48017000      14.58218000      -0.02958800      -0.00413700      -0.77174600
Pt       7.01499000       0.81002000      12.29109000       0.00796700      -0.04611800       0.00642200
Pt       5.61200000       3.24009000      12.29109000       0.04933300      -0.11595900       0.18555400
Pt       8.41799000       3.24009000      12.29109000       0.01299800      -0.04839200       0.14873800
Pt       4.20900000       5.67015000      12.29109000      -0.09484500       0.03953900       0.14444900
Pt       7.01499000       5.67015000      12.29109000       0.01324400       0.01428400       0.15388900
Pt       9.82099000       5.67015000      12.29109000       0.07116400       0.05262500       0.13995700
Pt       5.61200000       8.10022000      12.29109000      -0.09914700       0.06632200       0.16461400
Pt       8.41799000       8.10022000      12.29109000       0.09375300       0.02648000       0.13711300
Pt      11.22399000       8.10022000      12.29109000       0.00049600       0.04153300      -0.00486900
Pt       8.41799000       1.62004000      14.58218000      -0.09775900       0.08567200      -0.58724500
Pt       2.80600000       1.62004000      14.58218000       0.08672200       0.08121300      -0.59843700
Pt       5.61200000       1.62004000      14.58218000       0.00542800      -0.00109000      -0.45132100
Pt       9.82099000       4.05011000      14.58218000       0.05412600       0.22176000      -0.34148800
Pt       4.20900000       4.05011000      14.58218000       0.04879900       0.11697300      -0.68185700
Pt       2.80600000       3.24009000      12.29109000      -0.03282200      -0.00428300       0.12039000
Pt       5.61200000       6.48017000      14.58218000       0.04005300      -0.16836000      -0.23287800
64
Lattice="8.417993093 0.0 0.0 5.611995395 9.720261156 0.0 0.0 0.0 29.886262579" Properties=species:S:1:pos:R:3:forces:R:3 energy=-403.17619567 pbc="T T T"
C        7.01499000       7.29020000      18.72826000       0.00699600       1.28265300       0.53802600
C        4.20900000       4.86013000      18.49926000       0.23829300       0.46358800      -2.82012100
C        2.80600000       2.43007000      18.49926000       0.91105400      -0.91789900      -2.78398100
C        8.41799000       2.43007000      18.49926000       1.26886800       1.25236800      -2.25016700
C       11.22399000       8.10022000      18.27026000      -0.23387700      -0.41264000      -3.36005700
C        7.01499000       4.86013000      18.49926000      -0.25474800      -0.62451700      -2.82258800
C        9.82099000       4.86013000      18.49926000       0.01394700       0.92418100      -2.65865400
C        7.01499000       0.81002000      18.27026000      -0.96102400      -1.52207400      -3.23252600
O        4.20900000       4.86013000      19.65726000       0.04506300       0.06555000       1.16956900
O       11.22399000       8.10022000      19.42826000      -0.05507400      -0.16156400       3.09149900
O        7.01499000       7.29020000      19.88626000       0.00022100       0.66916700      -0.22381500
O        9.82099000       4.86013000      19.65726000       0.00258000       0.15033100       1.09295800
O        7.01499000       4.86013000      19.65726000      -0.05099900      -0.70665900       1.08625100
O        8.41799000       2.43007000      19.65726000       1.12756900       1.24656800       0.88380000
O        2.80600000       2.43007000      19.65726000       0.01970500      -0.16265600       1.27850600
O        7.01499000       0.81002000      19.42826000      -1.56939900      -1.76377500       2.89414100
Pt      12.62699000       8.91024000      14.58218000       0.08512900      -0.07579700      -0.69377500
Pt       7.01499000       8.91024000      14.58218000      -0.09993700      -0.05826600      -0.08107600
Pt       9.82099000       8.91024000      14.58218000       0.00764200       0.11986200      -0.31835100
Pt       0.00000000       0.00000000      16.87326000       0.05911600      -0.20982400       0.33646900
Pt       2.80600000       0.00000000      16.87326000       0.02534600      -0.08325400      -0.36850000
Pt       5.61200000       0.00000000      16.87326000      -0.21676300       0.09001400       0.82041300
Pt       1.40300000       2.43007000      16.87326000       0.02533800      -0.88664000       2.16836200
Pt       7.01499000       2.43007000      16.87326000       0.16093200      -0.24841200       1.12506600
Pt       2.80600000       4.86013000      16.87326000       0.07209100       0.09706000       2.14419200
Pt       5.61200000       4.86013000      16.87326000      -0.11435900      -0.47913100       2.36970300
Pt       8.41799000       4.86013000      16.87326000       0.09822700       0.11315800       2.07111300
Pt       4.20900000       7.29020000      16.87326000      -0.20938200       0.31537000       0.27993200
Pt       7.01499000       7.29020000      16.87326000       0.03232800       0.87406800       0.59975900
Pt       8.41799000       6.48017000      14.58218000      -0.02412600       0.17986300      -0.32425400
Pt       4.20900000       2.43007000      16.87326000      -0.65515900      -0.62257300       1.04034600
Pt       9.82099000       7.29020000      16.87326000       0.12731700       0.58048000       0.31807000
Pt       0.00000000       0.00000000      10.00000000       0.02864300       0.02674900      -0.18288300
Pt       7.01499000       4.05011000      14.58218000      -0.05470300       0.02888300      -0.21538600
Pt       2.80600000       0.00000000      10.00000000      -0.03503000      -0.00254800      -0.13605100
Pt       5.61200000       0.00000000      10.00000000       0.01472600      -0.00155600      -0.19896300
Pt       1.40300000       2.43007000      10.00000000       0.00477500       0.01087900      -0.23495700
Pt       4.20900000       2.43007000      10.00000000      -0.01298900      -0.03115800      -0.15034200
Pt       7.01499000       2.43007000      10.00000000       0.00552200      -0.05059500      -0.14974600
Pt       2.80600000       4.86013000      10.00000000       0.00798900      -0.04491000      -0.19307500
Pt       5.61200000       4.86013000      10.00000000      -0.01341500       0.02103500      -0.10756300
Pt       8.41799000       4.86013000      10.00000000       0.00521400      -0.00981000      -0.06644700
Pt       4.20900000       7.29020000      10.00000000      -0.03446600       0.00926900      -0.10787200
Pt       7.01499000       7.29020000      10.00000000      -0.02043200       0.01798300      -0.12590300
Pt       9.82099000       7.29020000      10.00000000       0.06954200      -0.00732100      -0.12611300
Pt       1.40300000       0.81002000      12.29109000       0.01069200       0.03563100       0.03592800
Pt       4.20900000       0.81002000      12.29109000       0.04764900      -0.09670800       0.11104300
Pt      11.22399000       6.48017000      14.58218000       0.01227700      -0.05417600      -0.59241100
Pt       7.01499000       0.81002000      12.29109000      -0.02517100      -0.07568200       0.11614200
Pt       5.61200000       3.24009000      12.29109000       0.01204500       0.01591500       0.09116800
Pt       8.41799000       3.24009000      12.29109000       0.01643700      -0.08829000       0.11351200
Pt       4.20900000       5.67015000      12.29109000      -0.01826900      -0.03034900       0.14892300
Pt       7.01499000       5.67015000      12.29109000      -0.00845100       0.02266700       0.04362100
Pt       9.82099000       5.67015000      12.29109000       0.02146100       0.01410600       0.11880600
Pt       5.61200000       8.10022000      12.29109000       0.07199400       0.01188900       0.13575100
Pt       8.41799000       8.10022000      12.29109000      -0.01856900      -0.04837400      -0.00245700
Pt      11.22399000       8.10022000      12.29109000      -0.02674900       0.07623200       0.11708000
Pt       8.41799000       1.62004000      14.58218000       0.26108100       0.06063400      -0.66909000
Pt       2.80600000       1.62004000      14.58218000      -0.18452800       0.05243200      -0.34953700
Pt       5.61200000       1.62004000      14.58218000      -0.04847900       0.17031800       0.02134700
Pt       9.82099000       4.05011000      14.58218000       0.01344200       0.18911100      -0.38829600
Pt       4.20900000       4.05011000      14.58218000       0.05405300       0.20373700      -0.32735900
Pt       2.80600000       3.24009000      12.29109000      -0.04182000      -0.06735200       0.15014800
Pt       5.61200000       6.48017000      14.58218000       0.00261600       0.15276000      -0.24932700
64
Lattice="8.417993093 0.0 0.0 5.611995395 9.720261156 0.0 0.0 0.0 29.886262579" Properties=species:S:1:pos:R:3:forces:R:3 energy=-404.9394515 pbc="T T T"
C        5.61200000       2.43007000      18.49926000      -0.56865400       1.08220100      -2.81893400
C        7.01499000       5.67015000      18.27026000      -0.63002200       0.00639500      -3.04980100
C        8.41799000       3.24009000      18.27026000       0.24904700      -0.01417800      -2.97833100
C       11.22399000       7.29020000      18.49926000       0.62191900      -0.08084900      -2.85663700
C        5.61200000       0.00000000      18.72826000       0.12795400       0.06091800       0.94515200
C        8.41799000       8.10022000      18.27026000      -0.01226900       0.04789700      -3.00468100
C        2.80600000       4.86013000      18.72826000       0.13859900      -1.02975600       0.66443700
C        1.40300000       0.81002000      18.27026000      -0.15205100      -0.07931200      -3.06000800
O        7.01499000       5.67015000      19.42826000      -0.12057800      -0.02235400       2.89004400
O        5.61200000       0.00000000      19.88626000      -0.00969700      -0.00706000      -0.43098300
O        5.61200000       2.43007000      19.65726000      -0.00335600       0.78794700       1.30622600
O        2.80600000       4.86013000      19.88626000      -0.00354500      -0.72019000      -0.33664900
O        8.41799000       8.10022000      19.42826000       0.04321100       0.01489300       2.84830500
O       11.22399000       7.29020000      19.65726000      -0.01506800      -0.01996700       1.22222000
O        8.41799000       3.24009000      19.42826000       0.06759500       0.03830100       2.83073900
O        1.40300000       0.81002000      19.42826000      -0.02741300      -0.01649500       2.88551000
Pt      12.62699000       8.91024000      14.58218000      -0.00607100       0.18784500      -0.16120700
Pt       7.01499000       8.91024000      14.58218000      -0.10672300      -0.16806400      -0.64323200
Pt       9.82099000       8.91024000      14.58218000       0.08380300       0.20922100      -0.43605100
Pt       0.00000000       0.00000000      16.87326000       0.20098900      -0.18544200       0.33485900
Pt       2.80600000       0.00000000      16.87326000      -0.22667300       0.12010300       0.64797200
Pt       5.61200000       0.00000000      16.87326000       0.22663400       0.11410600       0.26872100