62
Lattice="8.417993093 0.0 0.0 5.611995395 9.720261156 0.0 0.0 0.0 29.886262579" Properties=species:S:1:pos:R:3:forces:R:3 energy=-388.64942937 pbc="T T T"
C        8.41799000       7.29020000      18.49926000       0.33034700      -1.01835000      -2.86805200
C        8.41799000       2.43007000      18.49926000       0.58116400       1.20622700      -2.93359100
C       11.22399000       6.48017000      18.27026000      -0.01848900      -0.37603800      -3.22492700
C        5.61200000       3.24009000      18.27026000      -0.55570100       0.15482600      -3.33356900
C        5.61200000       7.29020000      18.49926000      -0.33443600      -1.00634000      -2.79156600
C        2.80600000       0.00000000      18.72826000       0.51779500       1.18452700       0.45908000
C        0.00000000       0.00000000      18.72826000      -0.47600000       0.06148600       0.69868000
O        8.41799000       2.43007000      19.65726000      -0.01674400       0.77596500       1.38126400
O        5.61200000       7.29020000      19.65726000      -0.01818800      -0.80303800       1.17592000
O        8.41799000       7.29020000      19.65726000       0.02423500      -0.79490100       1.21778100
O        2.80600000       0.00000000      19.88626000       0.12426300       0.69154700      -0.18350000
O        5.61200000       3.24009000      19.42826000      -0.07378000       0.04773900       3.12622700
O       11.22399000       6.48017000      19.42826000       0.00603000      -0.08556000       3.00507000
O        0.00000000       0.00000000      19.88626000      -0.13049400      -0.02148100      -0.28848800
Pt       8.41799000       6.48017000      14.58218000      -0.13052400       0.02901300      -0.34914300
Pt      12.62699000       8.91024000      14.58218000       0.12728700       0.03633000      -0.20355600
Pt       7.01499000       8.91024000      14.58218000      -0.02638600       0.17895900      -0.34607000
Pt       9.82099000       8.91024000      14.58218000      -0.09619000       0.05595300      -0.26063100
Pt       0.00000000       0.00000000      16.87326000      -0.42883500       0.16898000       0.29850900
Pt       2.80600000       0.00000000      16.87326000       0.50581300       0.76019300       0.59273200
Pt       5.61200000       0.00000000      16.87326000      -0.06193800       0.07254300      -0.50042700
Pt       4.20900000       2.43007000      16.87326000      -0.01991000       0.23892900       0.42026100
Pt       7.01499000       2.43007000      16.87326000       0.39513500       0.00715600       1.39447000
Pt       2.80600000       4.86013000      16.87326000      -0.19899000       0.03535600       0.47218100
Pt       5.61200000       4.86013000      16.87326000       0.02999500      -0.44817000       0.34830500
Pt       8.41799000       4.86013000      16.87326000       0.17936500      -0.06919600      -0.35368500
Pt       5.61200000       6.48017000      14.58218000       0.15127300      -0.09493000      -0.31358200
Pt       7.01499000       7.29020000      16.87326000      -0.00058100      -0.92026700       2.19699400
Pt       9.82099000       7.29020000      16.87326000      -0.31055700      -0.33787800       1.48136800
Pt       1.40300000       2.43007000      16.87326000      -0.34612600       0.50128600       1.03949500
Pt       4.20900000       7.29020000      16.87326000       0.31541800      -0.35619500       1.45484700
Pt       0.00000000       0.00000000      10.00000000      -0.06441300       0.02028700      -0.14593600
Pt       4.20900000       4.05011000      14.58218000      -0.08300600       0.05488000      -0.45035400
Pt       2.80600000       0.00000000      10.00000000       0.01679800      -0.04815600      -0.12681200
Pt       5.61200000       0.00000000      10.00000000       0.03918300      -0.03878700      -0.09253200
Pt       1.40300000       2.43007000      10.00000000       0.01176400       0.01327200      -0.06918200
Pt       4.20900000       2.43007000      10.00000000      -0.00785100       0.04373200      -0.06271100
Pt       7.01499000       2.43007000      10.00000000      -0.00141100       0.02307600      -0.14471100
Pt       2.80600000       4.86013000      10.00000000      -0.00950500       0.05135700      -0.20799900
Pt       5.61200000       4.86013000      10.00000000      -0.01692800      -0.01826000      -0.14791200
Pt       8.41799000       4.86013000      10.00000000       0.02305500       0.04385500      -0.17990000
Pt       4.20900000       7.29020000      10.00000000       0.04933100      -0.06562300      -0.16896200
Pt       7.01499000       7.29020000      10.00000000      -0.00864800       0.03793100      -0.07699000
Pt       9.82099000       7.29020000      10.00000000      -0.03032300      -0.06385200      -0.19231400
Pt       1.40300000       0.81002000      12.29109000       0.01612600      -0.06098800       0.03163800
Pt       4.20900000       0.81002000      12.29109000      -0.05113300      -0.02921800       0.06273400
Pt       7.01499000       0.81002000      12.29109000       0.03887000       0.02464600       0.10311400
Pt       2.80600000       3.24009000      12.29109000      -0.02858200       0.08042800       0.10348300
Pt       5.61200000       3.24009000      12.29109000       0.06527700      -0.04883100       0.20219200
Pt       8.41799000       3.24009000      12.29109000      -0.03943500       0.04396800       0.07697400
Pt       4.20900000       5.67015000      12.29109000      -0.01067200      -0.04728000       0.07233700
Pt       7.01499000       5.67015000      12.29109000      -0.01382400       0.00299200       0.02117100
Pt       9.82099000       5.67015000      12.29109000       0.02232800      -0.07590700       0.00060500
Pt       5.61200000       8.10022000      12.29109000      -0.10398500       0.09610100       0.14702500
Pt       8.41799000       8.10022000      12.29109000       0.10878000      -0.03454800       0.23824800
Pt      11.22399000       8.10022000      12.29109000       0.00821000      -0.06650100       0.11332500
Pt       8.41799000       1.62004000      14.58218000      -0.17105100      -0.19413600      -0.46790700
Pt       2.80600000       1.62004000      14.58218000       0.01024900      -0.00509900       0.04336800
Pt       5.61200000       1.62004000      14.58218000       0.13310600       0.08755200      -0.24557200
Pt       9.82099000       4.05011000      14.58218000       0.03909500       0.00037200      -0.34940600
Pt       7.01499000       4.05011000      14.58218000       0.03363300       0.03114900      -0.56228500
Pt      11.22399000       6.48017000      14.58218000      -0.01928800       0.26691700      -0.33712600
62
Lattice="8.417993093 0.0 0.0 5.611995395 9.720261156 0.0 0.0 0.0 29.657262579" Properties=species:S:1:pos:R:3:forces:R:3 energy=-387.08400984 pbc="T T T"
C        1.40300000       0.81002000      18.27026000      -1.44683300      -2.14860800      -2.98236000
C        8.41799000       3.24009000      18.27026000      -0.40884900       0.89256900      -2.91580500
C        5.61200000       3.24009000      18.27026000       0.13767200      -0.33540800      -2.76597400
C        2.80600000       2.43007000      18.49926000       2.19742100       1.82756300      -1.89754000
C        5.61200000       7.29020000      18.49926000       1.54637800       2.02895100      -2.09900800
C        8.41799000       8.10022000      18.27026000       0.76421400      -0.45032600      -2.91466000
C        4.20900000       5.67015000      18.27026000      -1.72450100      -1.39262500      -3.12049900
O        8.41799000       3.24009000      19.42826000       0.05050800       0.09337500       2.72651200
O        5.61200000       7.29020000      19.65726000       1.13241800       1.38548700       0.86426400
O        1.40300000       0.81002000      19.42826000      -1.66551000      -1.78845300       2.67032600
O        8.41799000       8.10022000      19.42826000       0.15681400      -0.06899300       2.79541900
O        2.80600000       2.43007000      19.65726000       1.09998400       1.40678500       0.73094200
O        5.61200000       3.24009000      19.42826000       0.02424800      -0.05686700       2.66314700
O        4.20900000       5.67015000      19.42826000      -1.69612100      -1.76577000       2.78808600
Pt       8.41799000       6.48017000      14.58218000      -0.10590500      -0.08218900      -0.15872700
Pt      12.62699000       8.91024000      14.58218000       0.03389700      -0.07331300      -0.05223600
Pt       7.01499000       8.91024000      14.58218000      -0.00329500      -0.08508200      -0.83250900
Pt       9.82099000       8.91024000      14.58218000      -0.05967100       0.12433700      -0.31982500
Pt       0.00000000       0.00000000      16.87326000      -0.31189200       0.34291700       0.49520300
Pt       2.80600000       0.00000000      16.87326000       0.40951700      -0.22640200       0.58698400
Pt       5.61200000       0.00000000      16.87326000       0.27738100      -0.18940600      -0.40754000
Pt       4.20900000       2.43007000      16.87326000      -0.44812100      -0.52195900       1.57049500
Pt       7.01499000       2.43007000      16.87326000      -0.22112400      -0.19735700       0.82000600
Pt       2.80600000       4.86013000      16.87326000      -0.09193400       0.75651800       0.45584100
Pt       5.61200000       4.86013000      16.87326000       0.12908100      -0.14359600       0.54434000
Pt       8.41799000       4.86013000      16.87326000       0.24448900      -0.03711900       0.39704800
Pt       5.61200000       6.48017000      14.58218000       0.20087600      -0.15046600      -0.61507600
Pt       7.01499000       7.29020000      16.87326000      -0.45931400      -0.49925000       1.53010800
Pt       9.82099000       7.29020000      16.87326000      -0.08368800       0.09337600       0.46766800
Pt       1.40300000       2.43007000      16.87326000       0.39068700       0.37775500       1.22221400
Pt       4.20900000       7.29020000      16.87326000       0.01593600       0.47149400       1.32095500
Pt       0.00000000       0.00000000      10.00000000       0.01004900       0.01991700      -0.14479200
Pt       4.20900000       4.05011000      14.58218000       0.00824500      -0.01436800      -0.79898800
Pt       2.80600000       0.00000000      10.00000000      -0.03089000       0.01340600      -0.17534100
Pt       5.61200000       0.00000000      10.00000000       0.01998700      -0.03850300      -0.10124900
Pt       1.40300000       2.43007000      10.00000000       0.03894500      -0.02033500      -0.13401900
Pt       4.20900000       2.43007000      10.00000000       0.00958000      -0.00957200      -0.08773100
Pt       7.01499000       2.43007000      10.00000000      -0.03316000       0.01912000      -0.14244900
Pt       2.80600000       4.86013000      10.00000000       0.02536800       0.00080200      -0.12997100
Pt       5.61200000       4.86013000      10.00000000      -0.01439700      -0.02944600      -0.12714700
Pt       8.41799000       4.86013000      10.00000000      -0.00041100      -0.01756500      -0.07423700
Pt       4.20900000       7.29020000      10.00000000       0.03959300      -0.03523800      -0.11107600
Pt       7.01499000       7.29020000      10.00000000       0.02258700       0.03064300      -0.11278200
Pt       9.82099000       7.29020000      10.00000000      -0.05534400       0.01321600      -0.12325600
Pt       1.40300000       0.81002000      12.29109000       0.02926800      -0.02842600      -0.01050300
Pt       4.20900000       0.81002000      12.29109000      -0.02240400      -0.08267100       0.02899300
Pt       7.01499000       0.81002000      12.29109000       0.00264800      -0.02346400       0.03066500
Pt       2.80600000       3.24009000      12.29109000      -0.05440700       0.06585500       0.06416000
Pt       5.61200000       3.24009000      12.29109000      -0.02053000      -0.02533200       0.24029000
Pt       8.41799000       3.24009000      12.29109000       0.02216700      -0.09859700       0.06144900
Pt       4.20900000       5.67015000      12.29109000      -0.01247300      -0.02876700       0.02643800
Pt       7.01499000       5.67015000      12.29109000       0.01244800       0.04197800       0.13602700
Pt       9.82099000       5.67015000      12.29109000       0.02669300      -0.01326200       0.05892800
Pt       5.61200000       8.10022000      12.29109000      -0.05335200       0.09748200       0.10760700
Pt       8.41799000       8.10022000      12.29109000       0.00760300       0.09414500       0.14509200
Pt      11.22399000       8.10022000      12.29109000       0.00566800      -0.07690300       0.03003500
Pt       8.41799000       1.62004000      14.58218000      -0.06785100       0.14231500      -0.49070900
Pt       2.80600000       1.62004000      14.58218000       0.07838000      -0.05856900      -0.52001600
Pt       5.61200000       1.62004000      14.58218000      -0.00846400       0.09717400      -0.10560800
Pt       9.82099000       4.05011000      14.58218000       0.08072000      -0.05962400      -0.30201700
Pt       7.01499000       4.05011000      14.58218000      -0.10772100       0.19812500      -0.53963700
Pt      11.22399000       6.48017000      14.58218000      -0.04330600       0.23853200      -0.26595700
62
Lattice="8.417993093 0.0 0.0 5.611995395 9.720261156 0.0 0.0 0.0 29.886262579" Properties=species:S:1:pos:R:3:forces:R:3 energy=-389.71540278 pbc="T T T"
C        2.80600000       3.24009000      18.27026000       0.11207800      -0.11239000      -3.26214800
C        2.80600000       0.00000000      18.72826000       0.25100100       0.14529300       0.20200700
C        8.41799000       2.43007000      18.49926000       0.30190200      -0.16467900      -2.91056000
C        5.61200000       4.86013000      18.72826000      -0.15383000       0.87697900       0.47189400
C        5.61200000       2.43007000      18.49926000      -0.25748400      -1.32728900      -2.94011000
C        7.01499000       7.29020000      18.72826000      -0.13633700       0.08986800       0.17525300
C        9.82099000       5.67015000      18.27026000      -0.24737700       0.53312200      -3.50213100
O        2.80600000       0.00000000      19.88626000       0.05990600       0.14867400      -0.09616900
O        5.61200000       2.43007000      19.65726000      -0.02688700      -0.77377400       1.25702000
O        2.80600000       3.24009000      19.42826000       0.05773900      -0.03784300       3.03060100
O        7.01499000       7.29020000      19.88626000       0.00928900      -0.00082200      -0.07252900
O        5.61200000       4.86013000      19.88626000      -0.06302000       0.56610600      -0.18823800
O        8.41799000       2.43007000      19.65726000       0.01929000      -0.00942500       1.33948000
O        9.82099000       5.67015000      19.42826000      -0.07585500       0.08968700       3.24031900
Pt       8.41799000       6.48017000      14.58218000      -0.20824100       0.08535200      -0.37068100
Pt      12.62699000       8.91024000      14.58218000      -0.01091900       0.03582500      -0.27547600
Pt       7.01499000       8.91024000      14.58218000       0.11975300      -0.15054400      -0.21650300
Pt       9.82099000       8.91024000      14.58218000      -0.12833900      -0.07034200      -0.06697600
Pt       0.00000000       0.00000000      16.87326000      -0.56392700      -0.26419000      -0.30536400
Pt       2.80600000       0.00000000      16.87326000       0.24281900      -0.11344100       0.73299500
Pt       5.61200000       0.00000000      16.87326000       0.34370600      -0.66960700      -0.22357100
Pt       4.20900000       2.43007000      16.87326000       0.60138100      -0.29850900       1.39086500
Pt       7.01499000       2.43007000      16.87326000       0.13910000      -0.61074400       2.28200200
Pt       2.80600000       4.86013000      16.87326000      -0.06978100       0.32679400       0.68456500
Pt       5.61200000       4.86013000      16.87326000      -0.08205900       0.51590500       0.51258500
Pt       8.41799000       4.86013000      16.87326000       0.26978400       0.28532100       0.21514100
Pt       5.61200000       6.48017000      14.58218000       0.15238700      -0.06819700      -0.17453600
Pt       7.01499000       7.29020000      16.87326000      -0.25730800       0.13137100       0.65486400
Pt       9.82099000       7.29020000      16.87326000       0.61319500      -0.05891600       0.39438400
Pt       1.40300000       2.43007000      16.87326000      -0.73376400      -0.18499300       1.44083000
Pt       4.20900000       7.29020000      16.87326000      -0.27569800       0.60356500      -0.32278300
Pt       0.00000000       0.00000000      10.00000000      -0.01138400       0.02055400      -0.17696400
Pt       4.20900000       4.05011000      14.58218000       0.01481400       0.28397600      -0.44254700
Pt       2.80600000       0.00000000      10.00000000      -0.01061600       0.00183900      -0.17254400
Pt       5.61200000       0.00000000      10.00000000       0.01565900       0.01816900      -0.17331500
Pt       1.40300000       2.43007000      10.00000000       0.03651600       0.03381100      -0.24351600
Pt       4.20900000       2.43007000      10.00000000      -0.06917400       0.02110400      -0.12344300
Pt       7.01499000       2.43007000      10.00000000       0.04016500      -0.07307400      -0.09534300
Pt       2.80600000       4.86013000      10.00000000       0.00240400      -0.01710400      -0.22860200
Pt       5.61200000       4.86013000      10.00000000      -0.02601200       0.00448600      -0.03357900
Pt       8.41799000       4.86013000      10.00000000       0.01170500       0.00396100      -0.05937000
Pt       4.20900000       7.29020000      10.00000000       0.01329100      -0.07213800      -0.17037500
Pt       7.01499000       7.29020000      10.00000000       0.00156000       0.05470500      -0.10562100
Pt       9.82099000       7.29020000      10.00000000      -0.01811500       0.02156000      -0.05789800
Pt       1.40300000       0.81002000      12.29109000      -0.02043600       0.00015400       0.02745100
Pt       4.20900000       0.81002000      12.29109000       0.01487300      -0.01263800       0.02759500
Pt       7.01499000       0.81002000      12.29109000       0.00891000      -0.11144400       0.03261200
Pt       2.80600000       3.24009000      12.29109000      -0.06136700       0.00981000       0.10091900
Pt       5.61200000       3.24009000      12.29109000      -0.00287400      -0.12363800       0.08982900
Pt       8.41799000       3.24009000      12.29109000       0.03397600      -0.09581000       0.15112700
Pt       4.20900000       5.67015000      12.29109000      -0.08947600       0.00311900       0.04467000
Pt       7.01499000       5.67015000      12.29109000      -0.04753000       0.05764400       0.20765000
Pt       9.82099000       5.67015000      12.29109000       0.12736400      -0.02492200       0.10874800
Pt       5.61200000       8.10022000      12.29109000      -0.06431000       0.06310100       0.07580900
Pt       8.41799000       8.10022000      12.29109000      -0.01367300       0.08927300       0.24339600
Pt      11.22399000       8.10022000      12.29109000       0.10085000       0.08749000       0.00411000
Pt       8.41799000       1.62004000      14.58218000      -0.03597400       0.10995800      -0.28105200
Pt       2.80600000       1.62004000      14.58218000       0.00080000      -0.00184100      -0.19517900
Pt       5.61200000       1.62004000      14.58218000       0.04936100       0.11188400      -0.30747600
Pt       9.82099000       4.05011000      14.58218000      -0.04288500      -0.04263000      -0.83540400
Pt       7.01499000       4.05011000      14.58218000      -0.00842700       0.13179800      -0.18306200
Pt      11.22399000       6.48017000      14.58218000       0.04750200      -0.07131300      -0.32565600
62
Lattice="8.417993093 0.0 0.0 5.611995395 9.720261156 0.0 0.0 0.0 29.657262579" Properties=species:S:1:pos:R:3:forces:R:3 energy=-387.27796251 pbc="T T T"
C       11.22399000       7.29020000      18.49926000       2.41838300      -1.52881100      -2.22612800
C        4.20900000       4.05011000      18.27026000       0.41138300      -0.38982300      -2.82997400
C        7.01499000       0.81002000      18.27026000       0.03564000      -0.43381100      -2.83765900
C        9.82099000       8.91024000      18.27026000      -1.58042800       1.87756400      -2.88102900
C        8.41799000       3.24009000      18.27026000      -0.68081600      -2.24907900      -2.92444700
C        7.01499000       5.67015000      18.27026000      -0.88783000       0.91324900      -2.83215600
C        9.82099000       4.86013000      18.49926000       1.91666900       1.63995500      -1.79068100
O        4.20900000       4.05011000      19.42826000       0.02448600      -0.06789100       2.84105000
O        8.41799000       3.24009000      19.42826000      -1.55025900      -1.77520300       2.61344500
O       11.22399000       7.29020000      19.65726000       1.20187500      -1.35182800       0.93589400
O        7.01499000       5.67015000      19.42826000      -0.00367000       0.10982500       2.77563600
O        9.82099000       8.91024000      19.42826000      -1.69004500       1.81662600       2.76858700
O        7.01499000       0.81002000      19.42826000      -0.01662000      -0.09620000       2.79701900
O        9.82099000       4.86013000      19.65726000       1.07738800       1.32921800       0.64789000
Pt       8.41799000       6.48017000      14.58218000       0.15198700       0.05177400      -0.20463700
Pt      12.62699000       8.91024000      14.58218000       0.03393200      -0.03806900      -0.50801900
Pt       7.01499000       8.91024000      14.58218000      -0.09245400       0.00797100      -0.09345300
Pt       9.82099000       8.91024000      14.58218000       0.06697500       0.07676400      -0.72763800
Pt       0.00000000       0.00000000      16.87326000       0.32082400      -0.26273400       0.48033800
Pt       2.80600000       0.00000000      16.87326000      -0.09007200       0.03810100       0.44123700
Pt       5.61200000       0.00000000      16.87326000      -0.17958200       0.35447700       0.52271400
Pt       4.20900000       2.43007000      16.87326000      -0.24282200       0.22279700       0.27011800
Pt       7.01499000       2.43007000      16.87326000       0.02496100      -0.17715700       0.74596600
Pt       2.80600000       4.86013000      16.87326000      -0.38017500      -0.52645700       1.34516000
Pt       5.61200000       4.86013000      16.87326000      -0.21809800       0.10137800       0.59046100
Pt       8.41799000       4.86013000      16.87326000       0.42906800       0.28234700       1.22438800
Pt       5.61200000       6.48017000      14.58218000      -0.17896100       0.13167200      -0.26440300
Pt       7.01499000       7.29020000      16.87326000      -0.35481900       0.18562500       0.44413500
Pt       9.82099000       7.29020000      16.87326000       0.38877300       0.22762700       1.00882200
Pt       1.40300000       2.43007000      16.87326000       0.07491800      -0.53364400       0.41073500
Pt       4.20900000       7.29020000      16.87326000      -0.58335500       0.00151100       1.14878100
Pt       0.00000000       0.00000000      10.00000000      -0.00802300       0.02944400      -0.15182600
Pt       4.20900000       4.05011000      14.58218000      -0.04835500       0.22926800      -0.35062200
Pt       2.80600000       0.00000000      10.00000000      -0.03961100       0.00303500      -0.10973900
Pt       5.61200000       0.00000000      10.00000000       0.04458200       0.00383000      -0.14596700
Pt       1.40300000       2.43007000      10.00000000      -0.02181300       0.01635900      -0.17385000
Pt       4.20900000       2.43007000      10.00000000       0.01091900      -0.02290200      -0.11154300
Pt       7.01499000       2.43007000      10.00000000       0.02355000      -0.00748700      -0.16014700
Pt       2.80600000       4.86013000      10.00000000       0.01619600      -0.00938900      -0.11248500
Pt       5.61200000       4.86013000      10.00000000      -0.00732400       0.00518300      -0.13705900
Pt       8.41799000       4.86013000      10.00000000       0.02355300      -0.03350200      -0.09605900
Pt       4.20900000       7.29020000      10.00000000      -0.02657900      -0.02249000      -0.08990000
Pt       7.01499000       7.29020000      10.00000000       0.00442100      -0.00810500      -0.09293900
Pt       9.82099000       7.29020000      10.00000000       0.03424600       0.01120900      -0.09241100
Pt       1.40300000       0.81002000      12.29109000       0.03423000      -0.00273400       0.04789800
Pt       4.20900000       0.81002000      12.29109000      -0.01731300       0.00229000       0.00081400
Pt       7.01499000       0.81002000      12.29109000      -0.00727100       0.01631500       0.11051000
Pt       2.80600000       3.24009000      12.29109000      -0.00836700      -0.08054000       0.02394700
Pt       5.61200000       3.24009000      12.29109000       0.00417400      -0.04700000       0.04715300
Pt       8.41799000       3.24009000      12.29109000      -0.01286400      -0.04130900       0.09145100
Pt       4.20900000       5.67015000      12.29109000       0.06404200      -0.05330400       0.19687500
Pt       7.01499000       5.67015000      12.29109000      -0.00066100       0.01300400       0.06494200
Pt       9.82099000       5.67015000      12.29109000      -0.01421500      -0.00387500       0.17486200
Pt       5.61200000       8.10022000      12.29109000       0.08344100       0.01765300       0.08756000
Pt       8.41799000       8.10022000      12.29109000      -0.05035300      -0.00248600       0.00027000
Pt      11.22399000       8.10022000      12.29109000      -0.04625700       0.07415900       0.13791200
Pt       8.41799000       1.62004000      14.58218000       0.09786200      -0.07984200      -0.73071700
Pt       2.80600000       1.62004000      14.58218000      -0.09895100       0.06219500      -0.15275900
Pt       5.61200000       1.62004000      14.58218000       0.05867400       0.06295500      -0.40527000
Pt       9.82099000       4.05011000      14.58218000      -0.00648200       0.04774200      -0.69571500
Pt       7.01499000       4.05011000      14.58218000       0.04786200       0.00927200      -0.48155000
Pt      11.22399000       6.48017000      14.58218000       0.01943000      -0.12672400      -0.58578700
62
Lattice="8.417993093 0.0 0.0 5.611995395 9.720261156 0.0 0.0 0.0 29.886262579" Properties=species:S:1:pos:R:3:forces:R:3 energy=-386.73235019 pbc="T T T"
C        5.61200000       2.43007000      18.49926000      -1.19448700       2.14855700      -2.34337100
C        2.80600000       2.43007000      18.49926000       1.18798400       0.98823700      -2.39111500
C        7.01499000       5.67015000      18.27026000       0.31700100      -0.47961700      -3.25637100
C        1.40300000       0.81002000      18.27026000      -0.18548700      -1.32494100      -2.95590800
C        2.80600000       4.86013000      18.72826000      -0.03107700       1.22344400       0.70348600
C        5.61200000       8.10022000      18.27026000      -0.39627500      -0.82572400      -2.79173400
C        7.01499000       0.81002000      18.27026000       0.19560600      -1.35483600      -2.95753600
O        2.80600000       2.43007000      19.65726000       1.14277700       0.62589600       0.86574500
O        2.80600000       4.86013000      19.88626000       0.00036700       0.69924300      -0.31969700
O        5.61200000       2.43007000      19.65726000      -1.13909200       1.40508100       0.94047600
O        5.61200000       8.10022000      19.42826000      -0.07401700      -0.08565000       2.66757200
O        1.40300000       0.81002000      19.42826000      -1.50597200      -1.77291200       2.68247200
O        7.01499000       5.67015000      19.42826000       0.04093700      -0.14444400       3.02333900
O        7.01499000       0.81002000      19.42826000       1.49694100      -1.75467200       2.66796700
Pt       8.41799000       6.48017000      14.58218000      -0.05086700       0.10935800      -0.33656200
Pt      12.62699000       8.91024000      14.58218000       0.01882500      -0.01563200      -0.55507600
Pt       7.01499000       8.91024000      14.58218000      -0.03565000      -0.15072200      -0.45469200
Pt       9.82099000       8.91024000      14.58218000       0.01407700       0.10742600       0.01234000
Pt       0.00000000       0.00000000      16.87326000       0.00614000      -0.04835900       0.70038000
Pt       2.80600000       0.00000000      16.87326000       0.24229200      -0.60367100       0.39946000
Pt       5.61200000       0.00000000      16.87326000      -0.27086800      -0.52522900       0.42914900
Pt       4.20900000       2.43007000      16.87326000       0.12192400      -0.45624100       2.36814900
Pt       7.01499000       2.43007000      16.87326000      -0.30860700       0.26939800       1.24864000
Pt       2.80600000       4.86013000      16.87326000      -0.13409500       0.80652800       0.57112700
Pt       5.61200000       4.86013000      16.87326000       0.29145700       0.21226700       0.29548700
Pt       8.41799000       4.86013000      16.87326000      -0.18702200       0.17200400       0.35527800
Pt       5.61200000       6.48017000      14.58218000      -0.04883000      -0.07278900      -0.66534800
Pt       7.01499000       7.29020000      16.87326000       0.30348200      -0.09069500       0.75281400
Pt       9.82099000       7.29020000      16.87326000       0.15803100       0.48571300      -0.38212800
Pt       1.40300000       2.43007000      16.87326000       0.18179100       0.25496500       1.20451600