74
Lattice="11.223990791 0.0 0.0 5.611995395 9.720261156 0.0 0.0 0.0 29.657262579" Properties=species:S:1:pos:R:3:forces:R:3 energy=-451.55477781 pbc="T T T"
C       14.02999000       8.10022000      18.27026000       0.81371100      -0.45999400      -2.94947400
C        7.01499000       0.81002000      18.27026000       0.00463900       0.93044600      -2.92504800
C       11.22399000       8.10022000      18.27026000      -0.81309200      -0.46492100      -2.91686900
C        7.01499000       5.67015000      18.27026000      -0.00640500      -0.00179700      -3.27253800
C       11.22399000       2.43007000      18.49926000      -0.00888900       0.04790900      -2.92994600
O        7.01499000       0.81002000      19.42826000      -0.00531300       0.22360300       2.78082500
O       14.02999000       8.10022000      19.42826000       0.19019400      -0.11662400       2.78985600
O        7.01499000       5.67015000      19.42826000       0.00564000       0.00209200       3.02776800
O       11.22399000       8.10022000      19.42826000      -0.18733200      -0.10976200       2.78006200
O       11.22399000       2.43007000      19.65726000       0.00924900      -0.01747300       1.43199100
Pt       7.01499000       4.05011000      14.58218000      -0.01648300      -0.15386500      -0.44283500
Pt       9.82099000       4.05011000      14.58218000      -0.14031100       0.07135000      -0.22586300
Pt      14.02999000       6.48017000      14.58218000      -0.13643100      -0.00856200      -0.29274600
Pt       5.61200000       6.48017000      14.58218000      -0.15020400       0.08371500      -0.46393600
Pt       8.41799000       6.48017000      14.58218000       0.14895500       0.09946300      -0.44559600
Pt      11.22399000       6.48017000      14.58218000       0.13637100      -0.05695600      -0.30357500
Pt      15.43299000       8.91024000      14.58218000      -0.03061900       0.12575800      -0.27039300
Pt       7.01499000       8.91024000      14.58218000      -0.02159000      -0.11789400      -0.13709900
Pt       9.82099000       8.91024000      14.58218000       0.05756200       0.12941000      -0.32790500
Pt      12.62699000       8.91024000      14.58218000      -0.00324900       0.00181300      -1.01516600
Pt       0.00000000       0.00000000      16.87326000       0.35135900      -0.32010600      -0.19835300
Pt       2.80600000       0.00000000      16.87326000      -0.24644800       0.13141700      -0.16142300
Pt       8.41799000       0.00000000      16.87326000       0.49250400       0.25393900       0.75706400
Pt       1.40300000       2.43007000      16.87326000      -0.22872100      -0.08960600       1.31584900
Pt       4.20900000       2.43007000      16.87326000      -0.31035200       0.20575300      -0.13758300
Pt       4.20900000       4.05011000      14.58218000       0.11165800       0.07543200      -0.15696300
Pt       9.82099000       2.43007000      16.87326000       0.60107000       0.09707700       1.14997000
Pt       2.80600000       4.86013000      16.87326000       0.12149100      -0.28425600      -0.14978300
Pt       5.61200000       4.86013000      16.87326000      -0.31126000      -0.17192800       0.53299600
Pt       8.41799000       4.86013000      16.87326000       0.17775100      -0.05508400       0.50501500
Pt      11.22399000       4.86013000      16.87326000       0.00308200       0.12438000      -0.22226000
Pt       4.20900000       7.29020000      16.87326000      -0.04952200       0.01080800       0.57351200
Pt       7.01499000       7.29020000      16.87326000      -0.01734000       0.36355200       0.55072200
Pt       9.82099000       7.29020000      16.87326000       0.05384800       0.01462600       0.58187400
Pt      12.62699000       7.29020000      16.87326000       0.00832700      -0.67632700       0.80614900
Pt       5.61200000       0.00000000      16.87326000      -0.58692800       0.32965200       0.80015200
Pt       7.01499000       2.43007000      16.87326000      -0.03975500      -0.06515500       0.52998000
Pt       0.00000000       0.00000000      10.00000000       0.02486500       0.01058000      -0.03728900
Pt       5.61200000       1.62004000      14.58218000      -0.07927800      -0.13154500      -0.31918700
Pt       9.82099000       7.29020000      10.00000000       0.01307300       0.02694700      -0.05707000
Pt       7.01499000       7.29020000      10.00000000      -0.00436700      -0.05883800      -0.18360500
Pt       4.20900000       7.29020000      10.00000000       0.01405300      -0.01317700      -0.03720100
Pt      11.22399000       4.86013000      10.00000000       0.00256000      -0.04810400      -0.03556100
Pt       8.41799000       4.86013000      10.00000000      -0.06395800       0.03104600      -0.17924100
Pt       5.61200000       4.86013000      10.00000000       0.05145300       0.03372000      -0.19639900
Pt      12.62699000       7.29020000      10.00000000      -0.02280900       0.04692800      -0.07562900
Pt       2.80600000       4.86013000      10.00000000       0.01127400      -0.02569500      -0.03286900
Pt       7.01499000       2.43007000      10.00000000      -0.00748300       0.00298600      -0.02597300
Pt       4.20900000       2.43007000      10.00000000      -0.02331400       0.00852500      -0.02532200
Pt       1.40300000       2.43007000      10.00000000      -0.01287300       0.00020200      -0.19188500
Pt       8.41799000       0.00000000      10.00000000      -0.01838000      -0.00697300      -0.05414700
Pt       5.61200000       0.00000000      10.00000000      -0.00168500      -0.06268700      -0.16895600
Pt       2.80600000       0.00000000      10.00000000      -0.01681200       0.01069400      -0.03701900
Pt       9.82099000       2.43007000      10.00000000       0.04704000       0.01746000      -0.05043200
Pt       1.40300000       0.81002000      12.29109000       0.03641600       0.11863800       0.10613800
Pt       4.20900000       0.81002000      12.29109000       0.09362100      -0.04397900       0.08580100
Pt       7.01499000       0.81002000      12.29109000      -0.08328600       0.01065300       0.16099000
Pt       2.80600000       1.62004000      14.58218000      -0.16595600       0.13075400      -0.06631400
Pt      11.22399000       1.62004000      14.58218000       0.02034700      -0.07856700      -0.56578600
Pt      14.02999000       8.10022000      12.29109000       0.02339700      -0.02855500       0.22101600
Pt      11.22399000       8.10022000      12.29109000      -0.04167000       0.00261600       0.25125300
Pt       8.41799000       8.10022000      12.29109000      -0.12945300      -0.06746900       0.06844900
Pt       5.61200000       8.10022000      12.29109000       0.13457300      -0.05374800       0.09470000
Pt      12.62699000       5.67015000      12.29109000       0.01567200       0.04091300       0.08262600
Pt       9.82099000       5.67015000      12.29109000      -0.12613900      -0.04682600       0.01861900
Pt       7.01499000       5.67015000      12.29109000       0.00326100       0.00126100       0.00691300
Pt       4.20900000       5.67015000      12.29109000       0.11204100      -0.09117100       0.08774500
Pt      11.22399000       3.24009000      12.29109000       0.10782300      -0.05029300       0.16970100
Pt       8.41799000       3.24009000      12.29109000       0.02073200       0.12393300       0.11250200
Pt       5.61200000       3.24009000      12.29109000      -0.01214700       0.15583400       0.07875000
Pt       2.80600000       3.24009000      12.29109000      -0.11683700      -0.07678100       0.15610200
Pt       9.82099000       0.81002000      12.29109000      -0.04201500      -0.00003700       0.13250500
Pt       8.41799000       1.62004000      14.58218000       0.22120600      -0.00720400      -0.14400400
Pt      12.62699000       4.05011000      14.58218000       0.03789000      -0.03392800      -0.31835600
74
Lattice="11.223990791 0.0 0.0 5.611995395 9.720261156 0.0 0.0 0.0 29.886262579" Properties=species:S:1:pos:R:3:forces:R:3 energy=-451.85214389 pbc="T T T"
C        7.01499000       0.81002000      18.27026000       0.38306300       0.47621500      -3.14278700
C        7.01499000       8.91024000      18.27026000      -0.02286500       0.01546000      -3.36461600
C        5.61200000       4.86013000      18.72826000      -0.05115500       0.00805300       0.41293100
C        9.82099000       5.67015000      18.27026000      -0.21505300      -0.57843200      -3.18972600
C       11.22399000       8.10022000      18.27026000       0.14266700      -0.08215100      -2.96594800
O        7.01499000       8.91024000      19.42826000       0.00933400      -0.01700600       3.09048900
O        7.01499000       0.81002000      19.42826000       0.07685300       0.11090100       2.96330100
O        9.82099000       5.67015000      19.42826000      -0.05522900      -0.11699900       2.96965600
O        5.61200000       4.86013000      19.88626000       0.01584600      -0.00256900      -0.21105200
O       11.22399000       8.10022000      19.42826000       0.03042400      -0.01935700       2.79347700
Pt       7.01499000       4.05011000      14.58218000      -0.03261100       0.00083700      -0.08710900
Pt       9.82099000       4.05011000      14.58218000       0.00404700      -0.09938300      -0.41491900
Pt      14.02999000       6.48017000      14.58218000      -0.13082700       0.08215400      -0.08677400
Pt       5.61200000       6.48017000      14.58218000       0.02873400      -0.14425600      -0.22484500
Pt       8.41799000       6.48017000      14.58218000       0.01465100       0.12011200      -0.31407700
Pt      11.22399000       6.48017000      14.58218000       0.09001800      -0.06559600      -0.68322600
Pt      15.43299000       8.91024000      14.58218000      -0.08157400       0.08701600      -0.11958200
Pt       7.01499000       8.91024000      14.58218000      -0.04015100      -0.00320900      -0.60416500
Pt       9.82099000       8.91024000      14.58218000       0.04006000      -0.00279900      -0.23058900
Pt      12.62699000       8.91024000      14.58218000       0.08770300      -0.06611400      -0.66246000
Pt       0.00000000       0.00000000      16.87326000      -0.16070400       0.12426800       0.58165700
Pt       2.80600000       0.00000000      16.87326000      -0.14535300       0.32864800       0.46149000
Pt       8.41799000       0.00000000      16.87326000       0.47186600       0.05942400       0.54308900
Pt       1.40300000       2.43007000      16.87326000       0.03130200       0.33572800      -0.12990400
Pt       4.20900000       2.43007000      16.87326000      -0.55341200      -0.12837400      -0.22412100
Pt       4.20900000       4.05011000      14.58218000       0.10107300       0.08157300      -0.23351400
Pt       9.82099000       2.43007000      16.87326000       0.31812800      -0.16246100      -0.19297400
Pt       2.80600000       4.86013000      16.87326000      -0.37516900      -0.02388200      -0.11976300
Pt       5.61200000       4.86013000      16.87326000       0.04221300      -0.07597700       0.81868400
Pt       8.41799000       4.86013000      16.87326000       0.17507000      -0.17695000       0.42822900
Pt      11.22399000       4.86013000      16.87326000       0.19023000      -0.47837600       0.61114200
Pt       4.20900000       7.29020000      16.87326000      -0.49877800       0.17133600      -0.28621200
Pt       7.01499000       7.29020000      16.87326000      -0.13460100       0.33935300       0.35338400
Pt       9.82099000       7.29020000      16.87326000      -0.08732500       0.06696400       0.70879800
Pt      12.62699000       7.29020000      16.87326000       0.47699300      -0.26832200       0.52481100
Pt       5.61200000       0.00000000      16.87326000      -0.31129300       0.22924500       0.75265400
Pt       7.01499000       2.43007000      16.87326000       0.18797700      -0.07644600       0.46000400
Pt       0.00000000       0.00000000      10.00000000       0.01513000       0.02814800      -0.12280300
Pt       5.61200000       1.62004000      14.58218000      -0.08311800      -0.10580200      -0.31144600
Pt       9.82099000       7.29020000      10.00000000      -0.00487000      -0.00245600      -0.07058700
Pt       7.01499000       7.29020000      10.00000000      -0.00784400      -0.00155900      -0.17886400
Pt       4.20900000       7.29020000      10.00000000       0.02966500       0.00034800      -0.03404900
Pt      11.22399000       4.86013000      10.00000000       0.04323800       0.00118300      -0.10820300
Pt       8.41799000       4.86013000      10.00000000      -0.00899600       0.01763600      -0.03713900
Pt       5.61200000       4.86013000      10.00000000       0.02666800      -0.01106900      -0.21765000
Pt      12.62699000       7.29020000      10.00000000      -0.01724200      -0.04704900      -0.08011200
Pt       2.80600000       4.86013000      10.00000000      -0.02528900      -0.00342700      -0.07687600
Pt       7.01499000       2.43007000      10.00000000      -0.03133700       0.00052400      -0.04351700
Pt       4.20900000       2.43007000      10.00000000       0.01048800       0.02147100      -0.17509400
Pt       1.40300000       2.43007000      10.00000000      -0.02124700      -0.02243600      -0.11148200
Pt       8.41799000       0.00000000      10.00000000       0.03293700       0.01928200      -0.07470200
Pt       5.61200000       0.00000000      10.00000000       0.00268900       0.00639300      -0.06697100
Pt       2.80600000       0.00000000      10.00000000      -0.04191800       0.01081100      -0.05700100
Pt       9.82099000       2.43007000      10.00000000       0.06660800      -0.03083600      -0.11829300
Pt       1.40300000       0.81002000      12.29109000       0.00644600       0.04481000       0.20695900
Pt       4.20900000       0.81002000      12.29109000      -0.01491800       0.09408200       0.11288700
Pt       7.01499000       0.81002000      12.29109000      -0.02652600       0.01891900       0.20523000
Pt       2.80600000       1.62004000      14.58218000       0.00063500       0.01716300      -0.23206400
Pt      11.22399000       1.62004000      14.58218000      -0.02337700      -0.02906800      -0.17228000
Pt      14.02999000       8.10022000      12.29109000      -0.01809300      -0.07456700       0.10609600
Pt      11.22399000       8.10022000      12.29109000       0.01433400       0.00118900       0.16087800
Pt       8.41799000       8.10022000      12.29109000      -0.04433900      -0.06541100       0.09425500
Pt       5.61200000       8.10022000      12.29109000       0.07644600      -0.01679000       0.02716200
Pt      12.62699000       5.67015000      12.29109000       0.06354700      -0.00092400       0.19216100
Pt       9.82099000       5.67015000      12.29109000       0.01723600      -0.02414300       0.15310200
Pt       7.01499000       5.67015000      12.29109000      -0.12988700       0.03196300       0.10440300
Pt       4.20900000       5.67015000      12.29109000       0.08366800      -0.11377300       0.07088200
Pt      11.22399000       3.24009000      12.29109000       0.01012700       0.05871100       0.13138000
Pt       8.41799000       3.24009000      12.29109000      -0.00269000       0.00148100       0.04590700
Pt       5.61200000       3.24009000      12.29109000      -0.09000800       0.10526900       0.06640400
Pt       2.80600000       3.24009000      12.29109000       0.06968100      -0.05717700      -0.03884300
Pt       9.82099000       0.81002000      12.29109000       0.02393800      -0.02772500       0.23497300
Pt       8.41799000       1.62004000      14.58218000       0.08799100       0.06218700      -0.42841200
Pt      12.62699000       4.05011000      14.58218000      -0.11192300       0.04401300      -0.14172500
74
Lattice="11.223990791 0.0 0.0 5.611995395 9.720261156 0.0 0.0 0.0 29.657262579" Properties=species:S:1:pos:R:3:forces:R:3 energy=-450.07427424 pbc="T T T"
C        9.82099000       4.05011000      18.27026000      -1.21733200       1.87440600      -3.00813600
C       11.22399000       8.10022000      18.27026000      -0.00059800       0.00766200      -3.35983300
C        7.01499000       5.67015000      18.27026000      -0.20154600       0.10407500      -3.08377300
C        9.82099000       0.00000000      18.49926000      -0.25698100      -0.48731400      -2.82563900
C       11.22399000       2.43007000      18.49926000       2.44717000      -1.59001100      -2.36707400
O       11.22399000       8.10022000      19.42826000      -0.00945000      -0.00333700       3.05549700
O        9.82099000       4.05011000      19.42826000      -1.57079000       1.83342100       2.81465200
O        9.82099000       0.00000000      19.65726000      -0.06054200      -0.09794000       1.37064500
O        7.01499000       5.67015000      19.42826000      -0.05837700       0.03238800       2.97113500
O       11.22399000       2.43007000      19.65726000       1.19996000      -1.36066400       1.01522900
Pt       7.01499000       4.05011000      14.58218000      -0.00302200      -0.00366600      -0.43781100
Pt       9.82099000       4.05011000      14.58218000      -0.14882900       0.07912000      -0.65383700
Pt      14.02999000       6.48017000      14.58218000      -0.09665400       0.10555900      -0.10976900
Pt       5.61200000       6.48017000      14.58218000      -0.08075600       0.03709100      -0.48233300
Pt       8.41799000       6.48017000      14.58218000       0.15525000       0.10681700      -0.39459500
Pt      11.22399000       6.48017000      14.58218000       0.03202300      -0.06802300      -0.51107400
Pt      15.43299000       8.91024000      14.58218000       0.01296000      -0.10022100      -0.52350700
Pt       7.01499000       8.91024000      14.58218000      -0.14714600       0.00840200       0.04068800
Pt       9.82099000       8.91024000      14.58218000      -0.04882100       0.01959300      -0.53385400
Pt      12.62699000       8.91024000      14.58218000       0.18485900       0.14283000      -0.29965200
Pt       0.00000000       0.00000000      16.87326000      -0.29390300      -0.65498000       1.12240900
Pt       2.80600000       0.00000000      16.87326000      -0.18660600       0.11918000      -0.15747600
Pt       8.41799000       0.00000000      16.87326000       0.52604000      -0.03814500       1.21390400
Pt       1.40300000       2.43007000      16.87326000      -0.12108300      -0.13841500       1.41130300
Pt       4.20900000       2.43007000      16.87326000       0.04582200       0.02865700      -0.02405000
Pt       4.20900000       4.05011000      14.58218000       0.11646700       0.04884400      -0.20090000
Pt       9.82099000       2.43007000      16.87326000       0.08442700      -0.06048800       1.17569300
Pt       2.80600000       4.86013000      16.87326000       0.19358000       0.16083200      -0.09347600
Pt       5.61200000       4.86013000      16.87326000      -0.34863100      -0.17517600       0.63071100
Pt       8.41799000       4.86013000      16.87326000       0.10554300      -0.05844300       0.71977200
Pt      11.22399000       4.86013000      16.87326000       0.12893800       0.16247300       0.46505700
Pt       4.20900000       7.29020000      16.87326000      -0.30218500      -0.34443300      -0.15787100
Pt       7.01499000       7.29020000      16.87326000       0.08583100       0.27103400       0.54086600
Pt       9.82099000       7.29020000      16.87326000       0.05466100       0.34234600       0.48482300
Pt      12.62699000       7.29020000      16.87326000       0.24405200      -0.20645300       0.55231000
Pt       5.61200000       0.00000000      16.87326000      -0.03034900       0.32460600       0.63766700
Pt       7.01499000       2.43007000      16.87326000      -0.52750600      -0.41532600      -0.27083300
Pt       0.00000000       0.00000000      10.00000000       0.00553900       0.02139800      -0.04684900
Pt       5.61200000       1.62004000      14.58218000      -0.00923000      -0.15097000      -0.18933900
Pt       9.82099000       7.29020000      10.00000000       0.02557600      -0.02366400      -0.16315200
Pt       7.01499000       7.29020000      10.00000000      -0.00764700      -0.04223000      -0.04406800
Pt       4.20900000       7.29020000      10.00000000       0.00556200      -0.02167400      -0.03927600
Pt      11.22399000       4.86013000      10.00000000      -0.02158200       0.00327600      -0.05893800
Pt       8.41799000       4.86013000      10.00000000      -0.02602800       0.03727400      -0.08836400
Pt       5.61200000       4.86013000      10.00000000       0.01341200      -0.00001900      -0.17033100
Pt      12.62699000       7.29020000      10.00000000      -0.03591800       0.05050300      -0.07507600
Pt       2.80600000       4.86013000      10.00000000       0.02457200      -0.02403900      -0.03417500
Pt       7.01499000       2.43007000      10.00000000      -0.02899800       0.00924900      -0.02726400
Pt       4.20900000       2.43007000      10.00000000      -0.01244300      -0.02207200      -0.08687000
Pt       1.40300000       2.43007000      10.00000000       0.00301100      -0.00511900      -0.17613100
Pt       8.41799000       0.00000000      10.00000000      -0.01627500      -0.01037100      -0.05197000
Pt       5.61200000       0.00000000      10.00000000      -0.01495100      -0.04231600      -0.17646700
Pt       2.80600000       0.00000000      10.00000000       0.03552000       0.02383100      -0.08035600
Pt       9.82099000       2.43007000      10.00000000       0.03672000      -0.00047800      -0.06061300
Pt       1.40300000       0.81002000      12.29109000       0.08108200       0.06724200       0.10546600
Pt       4.20900000       0.81002000      12.29109000       0.11450000      -0.00234500       0.08735900
Pt       7.01499000       0.81002000      12.29109000      -0.09950000      -0.01349200       0.16565600
Pt       2.80600000       1.62004000      14.58218000      -0.13381000       0.12773600      -0.07879200
Pt      11.22399000       1.62004000      14.58218000      -0.00924000      -0.08473700      -0.69311800
Pt      14.02999000       8.10022000      12.29109000      -0.01696000      -0.06285700       0.15552400
Pt      11.22399000       8.10022000      12.29109000      -0.08377900       0.03418700       0.12131000
Pt       8.41799000       8.10022000      12.29109000       0.04110800       0.02134200       0.03041700
Pt       5.61200000       8.10022000      12.29109000       0.04675200       0.01887600       0.16120100
Pt      12.62699000       5.67015000      12.29109000       0.02837800       0.02528100       0.11393500
Pt       9.82099000       5.67015000      12.29109000      -0.04043300       0.05719600       0.13175900
Pt       7.01499000       5.67015000      12.29109000      -0.08485200      -0.07963800       0.18109700
Pt       4.20900000       5.67015000      12.29109000       0.07891200      -0.08962900       0.10431100
Pt      11.22399000       3.24009000      12.29109000       0.12533700      -0.03455300       0.10194400
Pt       8.41799000       3.24009000      12.29109000       0.01218900       0.03274200       0.12160300
Pt       5.61200000       3.24009000      12.29109000      -0.07333400       0.11084100       0.03275500
Pt       2.80600000       3.24009000      12.29109000      -0.06629800      -0.10360800       0.09440300
Pt       9.82099000       0.81002000      12.29109000       0.00133900       0.02306000       0.23061500
Pt       8.41799000       1.62004000      14.58218000       0.16543300       0.10625600      -0.02485900
Pt      12.62699000       4.05011000      14.58218000       0.02985700       0.03721900      -0.30021600
74
Lattice="11.223990791 0.0 0.0 5.611995395 9.720261156 0.0 0.0 0.0 29.886262579" Properties=species:S:1:pos:R:3:forces:R:3 energy=-449.87072997 pbc="T T T"
C        5.61200000       7.29020000      18.49926000       0.92171700       0.05209200      -2.93463600
C        7.01499000       2.43007000      18.72826000      -0.03568700       0.00568400       0.24227000
C       12.62699000       5.67015000      18.27026000      -1.27326700      -1.87594300      -3.43524100
C       14.02999000       7.29020000      18.49926000       1.21530700       2.20963900      -2.46844600
C       11.22399000       2.43007000      18.49926000       0.02117600      -0.02843100      -3.03334200
O        7.01499000       2.43007000      19.88626000       0.01122100      -0.00277100      -0.11580700
O        5.61200000       7.29020000      19.65726000       0.02322100      -0.01812800       1.38612500
O       14.02999000       7.29020000      19.65726000       1.11535200       1.38185900       1.03112000
O       12.62699000       5.67015000      19.42826000      -1.65542800      -1.87377100       3.05735800
O       11.22399000       2.43007000      19.65726000      -0.00993200      -0.00942100       1.51937900
Pt       7.01499000       4.05011000      14.58218000      -0.02197200      -0.17340600      -0.21373500
Pt       9.82099000       4.05011000      14.58218000       0.09987400       0.09968100      -0.19197700
Pt      14.02999000       6.48017000      14.58218000       0.22833400       0.07572100      -0.63637300
Pt       5.61200000       6.48017000      14.58218000      -0.14428500       0.03906400      -0.34317100
Pt       8.41799000       6.48017000      14.58218000      -0.14227500       0.10065200      -0.06034800
Pt      11.22399000       6.48017000      14.58218000       0.07376800       0.12788600      -0.25427300
Pt      15.43299000       8.91024000      14.58218000       0.04670200       0.02734400      -0.30665000
Pt       7.01499000       8.91024000      14.58218000       0.04803200       0.01993200      -0.23779400
Pt       9.82099000       8.91024000      14.58218000      -0.01967300       0.04433900      -0.26246100
Pt      12.62699000       8.91024000      14.58218000      -0.09110900      -0.16999700      -0.12248700
Pt       0.00000000       0.00000000      16.87326000       0.16894800       0.16534100      -0.19264400
Pt       2.80600000       0.00000000      16.87326000       0.26615200       0.04855300      -0.07022400
Pt       8.41799000       0.00000000      16.87326000      -0.03473200       0.25280200      -0.25185400
Pt       1.40300000       2.43007000      16.87326000      -0.26070500      -0.49573600       1.24247500
Pt       4.20900000       2.43007000      16.87326000      -0.36351500      -0.02000600      -0.14654800
Pt       4.20900000       4.05011000      14.58218000      -0.13215200       0.09397000      -0.04459300
Pt       9.82099000       2.43007000      16.87326000       0.66900000      -0.10579200       1.14481400
Pt       2.80600000       4.86013000      16.87326000       0.20673800      -0.67032400       0.43439700
Pt       5.61200000       4.86013000      16.87326000      -0.06610700      -0.29576200      -0.21228800
Pt       8.41799000       4.86013000      16.87326000       0.20446400       0.42531900      -0.22967500
Pt      11.22399000       4.86013000      16.87326000      -0.25874900       0.35721800       0.59822500
Pt       4.20900000       7.29020000      16.87326000       0.09002300      -0.12766400       2.41016200
Pt       7.01499000       7.29020000      16.87326000      -0.22277100      -0.07108700       1.36537500
Pt       9.82099000       7.29020000      16.87326000      -0.35564700       0.17936200      -0.10619900
Pt      12.62699000       7.29020000      16.87326000       0.02180200       0.53604200       1.41561900
Pt       5.61200000       0.00000000      16.87326000      -0.38383300      -0.22107000      -0.11881600
Pt       7.01499000       2.43007000      16.87326000      -0.03939700      -0.01934000       0.93920400
Pt       0.00000000       0.00000000      10.00000000       0.06292400      -0.03538600      -0.12714000
Pt       5.61200000       1.62004000      14.58218000       0.14318300       0.06417600      -0.23695500
Pt       9.82099000       7.29020000      10.00000000      -0.00546500       0.03038100      -0.07458000
Pt       7.01499000       7.29020000      10.00000000      -0.00908900       0.05694800      -0.11921000
Pt       4.20900000       7.29020000      10.00000000       0.04112800       0.01764500      -0.09548400
Pt      11.22399000       4.86013000      10.00000000       0.00755100      -0.04042500      -0.14476300
Pt       8.41799000       4.86013000      10.00000000      -0.00725800      -0.04607000      -0.15757500
Pt       5.61200000       4.86013000      10.00000000       0.03043700      -0.02387300      -0.04389700
Pt      12.62699000       7.29020000      10.00000000      -0.01673000      -0.00140700      -0.08609700
Pt       2.80600000       4.86013000      10.00000000      -0.02237700       0.01637300      -0.06490900
Pt       7.01499000       2.43007000      10.00000000       0.00113900      -0.00544800      -0.23487200
Pt       4.20900000       2.43007000      10.00000000       0.01972500      -0.03202300      -0.02489800
Pt       1.40300000       2.43007000      10.00000000      -0.03322300       0.00788900      -0.09465400
Pt       8.41799000       0.00000000      10.00000000      -0.02354700       0.02207200      -0.02846500
Pt       5.61200000       0.00000000      10.00000000       0.00060300      -0.02515200      -0.17175900
Pt       2.80600000       0.00000000      10.00000000      -0.02592500      -0.01819300      -0.12794900
Pt       9.82099000       2.43007000      10.00000000       0.00208900       0.04171400      -0.10665900
Pt       1.40300000       0.81002000      12.29109000       0.04481500       0.02074100       0.12408400
Pt       4.20900000       0.81002000      12.29109000       0.02690800      -0.08890800       0.04428300
Pt       7.01499000       0.81002000      12.29109000      -0.09253200       0.09571600       0.08139500