78
Lattice="11.223990791 0.0 0.0 5.611995395 9.720261156 0.0 0.0 0.0 29.886262579" Properties=species:S:1:pos:R:3:forces:R:3 energy=-481.39896269 pbc="T T T"
C        4.20900000       4.86013000      18.49926000      -1.14041400      -0.33445900      -3.01670600
C        7.01499000       2.43007000      18.72826000       0.05202600      -1.23723100       0.38844200
C        8.41799000       7.29020000      18.49926000       1.12998400      -0.72026200      -2.94995200
C        1.40300000       2.43007000      18.72826000      -0.32935900       0.38807100       0.11003200
C        7.01499000       4.86013000      18.49926000       0.87483600       0.37570000      -2.93059900
C        2.80600000       0.00000000      18.72826000       0.30005800       0.79732100       0.34240300
C        5.61200000       7.29020000      18.49926000      -0.87709900       1.04716700      -2.94402400
O        7.01499000       2.43007000      19.88626000      -0.01121600      -0.68999900      -0.14458000
O        7.01499000       4.86013000      19.65726000       0.02159400       0.60231000       1.29199600
O        4.20900000       4.86013000      19.65726000      -0.07182000      -0.11706500       1.48318500
O        2.80600000       0.00000000      19.88626000       0.05459700       0.57045700      -0.10997000
O        1.40300000       2.43007000      19.88626000      -0.04294700       0.13284300      -0.03481300
O        8.41799000       7.29020000      19.65726000       0.07032300      -0.70610600       1.33006000
O        5.61200000       7.29020000      19.65726000      -0.03343600       0.13001100       1.39613100
Pt      14.02999000       6.48017000      14.58218000       0.04859600       0.11745300      -0.10990100
Pt       5.61200000       6.48017000      14.58218000       0.15873900       0.07149500      -0.59985600
Pt       8.41799000       6.48017000      14.58218000      -0.14095600       0.06323000      -0.45005300
Pt      11.22399000       6.48017000      14.58218000      -0.11520200       0.12402900      -0.09751500
Pt      15.43299000       8.91024000      14.58218000      -0.06776600       0.06323200      -0.38282700
Pt       7.01499000       8.91024000      14.58218000       0.16244300       0.05973200      -0.28775000
Pt       9.82099000       8.91024000      14.58218000      -0.05713700       0.14692200      -0.26011600
Pt      12.62699000       8.91024000      14.58218000      -0.00875000      -0.01599400      -0.20216400
Pt       0.00000000       0.00000000      16.87326000      -0.73143300       0.26271800      -0.23472700
Pt       2.80600000       0.00000000      16.87326000       0.36066900       0.38740600       0.62482000
Pt       5.61200000       0.00000000      16.87326000       0.33160000      -0.25835400      -0.24542600
Pt       1.40300000       2.43007000      16.87326000      -0.30950200       0.25131800       0.86275400
Pt       4.20900000       2.43007000      16.87326000       0.08723000      -0.27253700      -0.35905300
Pt       7.01499000       2.43007000      16.87326000       0.13472900      -0.70029200       0.74891700
Pt       9.82099000       2.43007000      16.87326000       0.10634700      -0.08662600      -0.20282000
Pt       2.80600000       4.86013000      16.87326000       0.38667500       0.23550600       1.24281900
Pt       9.82099000       4.05011000      14.58218000      -0.14663400       0.15129500      -0.00303200
Pt       8.41799000       4.86013000      16.87326000      -0.03284600      -0.44374500       1.13294600
Pt      11.22399000       4.86013000      16.87326000      -0.06200600       0.29115400      -0.20302800
Pt       4.20900000       7.29020000      16.87326000       0.14205600       0.49611000       1.26469400
Pt       7.01499000       7.29020000      16.87326000      -0.05816300       0.07473100       1.99935500
Pt       9.82099000       7.29020000      16.87326000      -0.04867100      -0.37103600       1.29215200
Pt      12.62699000       7.29020000      16.87326000      -0.14552200       0.12433600      -0.09108700
Pt       8.41799000       0.00000000      16.87326000       0.08251500      -0.25065600      -0.11625900
Pt       5.61200000       4.86013000      16.87326000      -0.24308700      -0.62609700       2.00516200
Pt       0.00000000       0.00000000      10.00000000       0.01331800       0.00573000      -0.12848900
Pt      12.62699000       4.05011000      14.58218000       0.12862300      -0.06718400      -0.10830900
Pt      12.62699000       7.29020000      10.00000000       0.03543300       0.01349200      -0.16623200
Pt       9.82099000       7.29020000      10.00000000       0.01463100       0.02374500      -0.04699100
Pt       7.01499000       7.29020000      10.00000000      -0.00502000       0.05568800      -0.12443800
Pt       4.20900000       7.29020000      10.00000000      -0.04112700      -0.02227500      -0.13117000
Pt      11.22399000       4.86013000      10.00000000       0.01693900      -0.04185400      -0.16408300
Pt       8.41799000       4.86013000      10.00000000       0.00485700      -0.02887700      -0.01650700
Pt       5.61200000       4.86013000      10.00000000      -0.01912200       0.02066700      -0.06434500
Pt       2.80600000       4.86013000      10.00000000      -0.00559600       0.00007200      -0.19202900
Pt       9.82099000       2.43007000      10.00000000       0.01801100      -0.02100500      -0.14588900
Pt       7.01499000       2.43007000      10.00000000       0.00348300      -0.02828500      -0.07799800
Pt       4.20900000       2.43007000      10.00000000      -0.03740200       0.00984100      -0.05901800
Pt       1.40300000       2.43007000      10.00000000       0.01325300      -0.00458100      -0.21322400
Pt       8.41799000       0.00000000      10.00000000      -0.02510900      -0.00074800      -0.13919800
Pt       5.61200000       0.00000000      10.00000000       0.06542800      -0.02458800      -0.08395900
Pt       2.80600000       0.00000000      10.00000000      -0.03387400      -0.00313000      -0.15156500
Pt       1.40300000       0.81002000      12.29109000       0.00633900       0.08633600       0.17184400
Pt       4.20900000       0.81002000      12.29109000      -0.00235200      -0.03751100       0.02502100
Pt       7.01499000       0.81002000      12.29109000       0.00787000       0.02336900       0.24455200
Pt       9.82099000       0.81002000      12.29109000       0.01741600      -0.00811300      -0.06353100
Pt       8.41799000       1.62004000      14.58218000      -0.12708300       0.05200900      -0.21168600
Pt       5.61200000       1.62004000      14.58218000       0.11733600       0.06733600      -0.14463100
Pt       2.80600000       1.62004000      14.58218000      -0.12584500      -0.07910900      -0.25023000
Pt      11.22399000       1.62004000      14.58218000       0.08670900       0.07275300      -0.21315700
Pt      14.02999000       8.10022000      12.29109000      -0.00238600       0.02778900       0.14037400
Pt      11.22399000       8.10022000      12.29109000       0.05691600      -0.05437700       0.12973000
Pt       8.41799000       8.10022000      12.29109000      -0.02514200       0.04820600       0.21652000
Pt       4.20900000       4.05011000      14.58218000       0.18109400       0.08086400      -0.33987600
Pt       5.61200000       8.10022000      12.29109000      -0.02216200       0.01189800       0.11542800
Pt       9.82099000       5.67015000      12.29109000       0.08366700      -0.05000100       0.18231100
Pt       7.01499000       5.67015000      12.29109000       0.01331100       0.03767400       0.14414700
Pt       4.20900000       5.67015000      12.29109000      -0.09662400      -0.05573000       0.19037300
Pt      11.22399000       3.24009000      12.29109000       0.01316300      -0.08926500       0.07495500
Pt       8.41799000       3.24009000      12.29109000       0.08384000      -0.03513100       0.18242200
Pt       5.61200000       3.24009000      12.29109000      -0.01175300      -0.03183100       0.17487900
Pt       2.80600000       3.24009000      12.29109000      -0.10233300       0.04624300       0.10123100
Pt      12.62699000       5.67015000      12.29109000       0.02448000       0.00151600      -0.01398000
Pt       7.01499000       4.05011000      14.58218000      -0.15424200      -0.13572300      -0.38286200
78
Lattice="11.223990791 0.0 0.0 5.611995395 9.720261156 0.0 0.0 0.0 29.886262579" Properties=species:S:1:pos:R:3:forces:R:3 energy=-480.04735133 pbc="T T T"
C        5.61200000       6.48017000      18.27026000      -1.90149800       2.04282000      -2.93706000
C        1.40300000       0.00000000      18.49926000      -0.18196300       0.68071000      -2.91398300
C        9.82099000       2.43007000      18.72826000       0.19422400       0.06056000       0.39663100
C        8.41799000       7.29020000      18.49926000       1.07435600       0.18686500      -2.56770000
C        7.01499000       4.86013000      18.49926000       4.09553600      -0.34461400      -1.86144900
C        5.61200000       3.24009000      18.27026000      -1.76068800      -1.81197900      -3.03946300
C        7.01499000       0.81002000      18.27026000       0.09095400      -0.72907200      -3.27505500
O        1.40300000       0.00000000      19.65726000      -0.07181300       0.04672200       1.44914000
O        7.01499000       4.86013000      19.65726000       2.20130700      -0.10107200       0.75256300
O        5.61200000       6.48017000      19.42826000      -1.71304900       1.77563600       2.83623900
O        5.61200000       3.24009000      19.42826000      -1.71887500      -1.69909400       2.85519200
O        8.41799000       7.29020000      19.65726000       0.10094700      -0.02333300       1.20685000
O        9.82099000       2.43007000      19.88626000      -0.01963200      -0.00009900      -0.23148400
O        7.01499000       0.81002000      19.42826000       0.06077600      -0.09486800       3.05871500
Pt      14.02999000       6.48017000      14.58218000      -0.01586700       0.03463300      -0.22613600
Pt       5.61200000       6.48017000      14.58218000       0.10443200      -0.00982300      -0.40320200
Pt       8.41799000       6.48017000      14.58218000       0.03761700      -0.01047800      -0.63254500
Pt      11.22399000       6.48017000      14.58218000      -0.12687300       0.10723400      -0.03147100
Pt      15.43299000       8.91024000      14.58218000       0.00565900       0.18426400       0.04224500
Pt       7.01499000       8.91024000      14.58218000       0.00032600      -0.09767800      -0.69234500
Pt       9.82099000       8.91024000      14.58218000       0.04007400       0.21094700       0.02125900
Pt      12.62699000       8.91024000      14.58218000      -0.00118100      -0.10208300      -0.46891400
Pt       0.00000000       0.00000000      16.87326000       0.40478300      -0.10084400       0.99565400
Pt       2.80600000       0.00000000      16.87326000      -0.20762800       0.45141100       1.03362100
Pt       5.61200000       0.00000000      16.87326000      -0.04794700      -0.34863500       0.49702300
Pt       1.40300000       2.43007000      16.87326000       0.42679100       0.49530700      -0.19511400
Pt       4.20900000       2.43007000      16.87326000      -0.31189400       0.10499100       0.65214000
Pt       7.01499000       2.43007000      16.87326000      -0.08878500      -0.30490800       0.48347100
Pt       9.82099000       2.43007000      16.87326000       0.24839100       0.19981600       0.78874300
Pt       2.80600000       4.86013000      16.87326000      -0.68252100       0.01435200      -0.20047000
Pt       9.82099000       4.05011000      14.58218000      -0.13955100       0.00025200       0.03745500
Pt       8.41799000       4.86013000      16.87326000      -0.40775400      -0.34856300       1.16363600
Pt      11.22399000       4.86013000      16.87326000       0.42323900       0.28463100      -0.17592400
Pt       4.20900000       7.29020000      16.87326000      -0.26344000       0.00242500       0.59531500
Pt       7.01499000       7.29020000      16.87326000       0.36968100       0.09449600       1.03543200
Pt       9.82099000       7.29020000      16.87326000      -0.11168400      -0.07505100       1.25675600
Pt      12.62699000       7.29020000      16.87326000       0.01621300      -0.36274100      -0.16199800
Pt       8.41799000       0.00000000      16.87326000      -0.02214000      -0.47787500       0.47101900
Pt       5.61200000       4.86013000      16.87326000      -0.20708600       0.00987600       0.99661000
Pt       0.00000000       0.00000000      10.00000000       0.02552300      -0.00717500      -0.20065000
Pt      12.62699000       4.05011000      14.58218000      -0.00135500      -0.03320600      -0.25236000
Pt      12.62699000       7.29020000      10.00000000      -0.02631200      -0.05175600      -0.17016800
Pt       9.82099000       7.29020000      10.00000000       0.00976800       0.04872000      -0.11703200
Pt       7.01499000       7.29020000      10.00000000       0.00390000      -0.00014300      -0.21251800
Pt       4.20900000       7.29020000      10.00000000       0.02029600      -0.00323800      -0.03556200
Pt      11.22399000       4.86013000      10.00000000       0.02172800      -0.01458500      -0.10305400
Pt       8.41799000       4.86013000      10.00000000       0.00043500       0.00761500      -0.04080200
Pt       5.61200000       4.86013000      10.00000000      -0.00593800       0.01264900      -0.07218500
Pt       2.80600000       4.86013000      10.00000000      -0.00483300      -0.04542300      -0.15884600
Pt       9.82099000       2.43007000      10.00000000       0.04150200       0.02146100      -0.12990400
Pt       7.01499000       2.43007000      10.00000000      -0.00777700      -0.01124800      -0.04612500
Pt       4.20900000       2.43007000      10.00000000      -0.02221500       0.03061500      -0.08345100
Pt       1.40300000       2.43007000      10.00000000       0.00464500      -0.02659300      -0.17707300
Pt       8.41799000       0.00000000      10.00000000      -0.00076300      -0.01221000      -0.03011900
Pt       5.61200000       0.00000000      10.00000000      -0.03165800      -0.03692700      -0.11203900
Pt       2.80600000       0.00000000      10.00000000      -0.01039400      -0.01336400      -0.14316400
Pt       1.40300000       0.81002000      12.29109000      -0.02982000       0.00965800      -0.06993400
Pt       4.20900000       0.81002000      12.29109000      -0.07409300      -0.03317900       0.12187200
Pt       7.01499000       0.81002000      12.29109000      -0.03615600      -0.02845200       0.16729700
Pt       9.82099000       0.81002000      12.29109000       0.11106100      -0.03775000       0.11599900
Pt       8.41799000       1.62004000      14.58218000       0.07406500       0.21230600      -0.30295300
Pt       5.61200000       1.62004000      14.58218000      -0.06134900      -0.07001000      -0.67012100
Pt       2.80600000       1.62004000      14.58218000       0.09849900       0.08752200      -0.23824800
Pt      11.22399000       1.62004000      14.58218000      -0.13696300       0.09782800      -0.32061600
Pt      14.02999000       8.10022000      12.29109000      -0.00287500      -0.05110500       0.12416300
Pt      11.22399000       8.10022000      12.29109000       0.01050800      -0.06446200       0.15402500
Pt       8.41799000       8.10022000      12.29109000      -0.08411300      -0.03706900       0.08650000
Pt       4.20900000       4.05011000      14.58218000       0.11923900       0.17647000      -0.19107500
Pt       5.61200000       8.10022000      12.29109000       0.05677300       0.05741300       0.06891500
Pt       9.82099000       5.67015000      12.29109000       0.04567600       0.02682800       0.08386600
Pt       7.01499000       5.67015000      12.29109000      -0.02286400       0.11530500       0.13416400
Pt       4.20900000       5.67015000      12.29109000      -0.07036400      -0.03208100       0.12129100
Pt      11.22399000       3.24009000      12.29109000       0.03977100      -0.01324800       0.11683500
Pt       8.41799000       3.24009000      12.29109000       0.10478800      -0.03790800       0.20278500
Pt       5.61200000       3.24009000      12.29109000      -0.00571300       0.04932700       0.21924500
Pt       2.80600000       3.24009000      12.29109000      -0.07891000      -0.01167200       0.08701200
Pt      12.62699000       5.67015000      12.29109000       0.04907100      -0.01775900       0.08450700
Pt       7.01499000       4.05011000      14.58218000      -0.01621800      -0.20829300      -0.62187200
78
Lattice="11.223990791 0.0 0.0 5.611995395 9.720261156 0.0 0.0 0.0 29.657262579" Properties=species:S:1:pos:R:3:forces:R:3 energy=-481.65463565 pbc="T T T"
C        8.41799000       3.24009000      18.27026000       0.01038100       0.34460100      -3.11244800
C       11.22399000       2.43007000      18.49926000       0.59778500      -0.10524700      -2.75477100
C        5.61200000       2.43007000      18.49926000      -0.33574900       0.51428400      -2.61279800
C       14.02999000       7.29020000      18.49926000       1.55874200      -1.93321400      -2.24947700
C        4.20900000       0.00000000      18.49926000      -0.87541000      -0.26021300      -2.63288700
C        5.61200000       6.48017000      18.27026000       0.50986800      -0.17350400      -3.11567200
C       12.62699000       8.91024000      18.27026000      -0.80947800       1.72136800      -3.12527900
O       11.22399000       2.43007000      19.65726000      -0.00259900      -0.00614800       1.29966900
O        4.20900000       0.00000000      19.65726000      -0.04842400      -0.11123400       1.21210600
O        8.41799000       3.24009000      19.42826000      -0.00001400       0.10477300       2.89354600
O        5.61200000       6.48017000      19.42826000       0.10012900      -0.04616000       2.93872500
O       14.02999000       7.29020000      19.65726000       1.14886400      -1.44924200       0.93541900
O        5.61200000       2.43007000      19.65726000       0.05049500       0.04091200       1.19596100
O       12.62699000       8.91024000      19.42826000      -1.53697600       1.84635900       2.81678700
Pt      14.02999000       6.48017000      14.58218000      -0.00747500      -0.03996600      -0.60091000
Pt       5.61200000       6.48017000      14.58218000      -0.12553700       0.04282000      -0.47852300
Pt       8.41799000       6.48017000      14.58218000       0.00072500      -0.09164600      -0.22368800
Pt      11.22399000       6.48017000      14.58218000       0.18297400       0.06451000       0.02001100
Pt      15.43299000       8.91024000      14.58218000       0.04915600      -0.03390800      -0.26538200
Pt       7.01499000       8.91024000      14.58218000       0.11911200       0.10161700      -0.10010700
Pt       9.82099000       8.91024000      14.58218000       0.02919400      -0.00714200      -0.59802000
Pt      12.62699000       8.91024000      14.58218000      -0.17864800       0.11993400      -0.61380300
Pt       0.00000000       0.00000000      16.87326000       0.20170300      -0.02310900      -0.31083000
Pt       2.80600000       0.00000000      16.87326000       0.26663400      -0.21100000       1.25826000
Pt       5.61200000       0.00000000      16.87326000      -0.46120400      -0.52719700       1.33657400
Pt       1.40300000       2.43007000      16.87326000      -0.40212500       0.02367000       1.26977600
Pt       4.20900000       2.43007000      16.87326000       0.25735600       0.42026000       1.14527900
Pt       7.01499000       2.43007000      16.87326000      -0.50555700       0.02343800       1.47228300
Pt       9.82099000       2.43007000      16.87326000       0.61413700      -0.24101200       1.55786800
Pt       2.80600000       4.86013000      16.87326000      -0.30644800      -0.53498100      -0.24232800
Pt       9.82099000       4.05011000      14.58218000       0.03627000       0.02630700      -0.56277300
Pt       8.41799000       4.86013000      16.87326000       0.30199700       0.27486600       0.56956300
Pt      11.22399000       4.86013000      16.87326000       0.18215000       0.60075100      -0.20619000
Pt       4.20900000       7.29020000      16.87326000      -0.40650700      -0.05083200       1.63028700
Pt       7.01499000       7.29020000      16.87326000       0.13869900       0.08431900       0.52144000
Pt       9.82099000       7.29020000      16.87326000      -0.31707700      -0.69330100      -0.22336400
Pt      12.62699000       7.29020000      16.87326000       0.13904200      -0.62122000       1.46245100
Pt       8.41799000       0.00000000      16.87326000       0.05527900       0.00564000       0.40776900
Pt       5.61200000       4.86013000      16.87326000      -0.22617400       0.42934300       0.35225100
Pt       0.00000000       0.00000000      10.00000000       0.02731500      -0.04403100      -0.14473700
Pt      12.62699000       4.05011000      14.58218000       0.07240600      -0.00641900      -0.30047700
Pt      12.62699000       7.29020000      10.00000000      -0.00442600       0.02586500      -0.06998100
Pt       9.82099000       7.29020000      10.00000000      -0.00104500       0.01467200      -0.06953500
Pt       7.01499000       7.29020000      10.00000000      -0.00886400      -0.01220900      -0.10093300
Pt       4.20900000       7.29020000      10.00000000       0.00000500      -0.01965900      -0.15941800
Pt      11.22399000       4.86013000      10.00000000      -0.02046900      -0.04759000      -0.06687900
Pt       8.41799000       4.86013000      10.00000000      -0.02792700      -0.02109300      -0.14559500
Pt       5.61200000       4.86013000      10.00000000       0.02465000       0.05071800      -0.11354800
Pt       2.80600000       4.86013000      10.00000000       0.02731300       0.04033300      -0.05421700
Pt       9.82099000       2.43007000      10.00000000       0.03375300       0.04217500      -0.12255600
Pt       7.01499000       2.43007000      10.00000000       0.03043400       0.03233500      -0.08109200
Pt       4.20900000       2.43007000      10.00000000       0.00045400      -0.03056300      -0.02269300
Pt       1.40300000       2.43007000      10.00000000      -0.06878000      -0.00687100      -0.08239900
Pt       8.41799000       0.00000000      10.00000000       0.00268800      -0.02273100      -0.00082900
Pt       5.61200000       0.00000000      10.00000000      -0.03637600      -0.04283200      -0.16564400
Pt       2.80600000       0.00000000      10.00000000      -0.00236700       0.00554200      -0.15258400
Pt       1.40300000       0.81002000      12.29109000       0.06050000      -0.07826300       0.01964100
Pt       4.20900000       0.81002000      12.29109000      -0.01317600      -0.12066600       0.10799300
Pt       7.01499000       0.81002000      12.29109000      -0.09550700       0.00678400       0.10637500
Pt       9.82099000       0.81002000      12.29109000       0.04959900       0.02670600       0.05434700
Pt       8.41799000       1.62004000      14.58218000       0.03157800       0.18082100      -0.16547000
Pt       5.61200000       1.62004000      14.58218000       0.13794300      -0.07235400      -0.56235400
Pt       2.80600000       1.62004000      14.58218000      -0.08058900       0.27057900       0.00690300
Pt      11.22399000       1.62004000      14.58218000      -0.12621100       0.02008200      -0.52040600
Pt      14.02999000       8.10022000      12.29109000       0.09189400      -0.07348800       0.20639800
Pt      11.22399000       8.10022000      12.29109000       0.01776400       0.00119300       0.19845400
Pt       8.41799000       8.10022000      12.29109000      -0.08187800       0.06861500       0.05314100
Pt       4.20900000       4.05011000      14.58218000      -0.00515800       0.05285300      -0.28218400
Pt       5.61200000       8.10022000      12.29109000      -0.03024400      -0.01656200       0.07942900
Pt       9.82099000       5.67015000      12.29109000      -0.05993100       0.02516800       0.01438800
Pt       7.01499000       5.67015000      12.29109000       0.15003200      -0.00186300       0.06238100
Pt       4.20900000       5.67015000      12.29109000       0.03518300      -0.01307300       0.07559400
Pt      11.22399000       3.24009000      12.29109000       0.00330600      -0.01839500       0.21011800
Pt       8.41799000       3.24009000      12.29109000       0.05367400       0.01136800       0.15781800
Pt       5.61200000       3.24009000      12.29109000       0.00489200       0.08208300       0.17075500
Pt       2.80600000       3.24009000      12.29109000      -0.06651000      -0.02438300       0.11288000
Pt      12.62699000       5.67015000      12.29109000      -0.05222700       0.01025400       0.07572400
Pt       7.01499000       4.05011000      14.58218000      -0.07898400       0.07539800      -0.59558500
78
Lattice="11.223990791 0.0 0.0 5.611995395 9.720261156 0.0 0.0 0.0 29.886262579" Properties=species:S:1:pos:R:3:forces:R:3 energy=-482.94351242 pbc="T T T"
C       11.22399000       7.29020000      18.49926000       0.60790000       1.46698100      -2.84404900
C        5.61200000       3.24009000      18.27026000       0.06921400      -0.33292100      -2.82940200
C        8.41799000       3.24009000      18.27026000       0.54037000      -0.23468800      -3.06196400
C        8.41799000       6.48017000      18.27026000      -0.59865800       0.10952000      -3.01242800
C        4.20900000       5.67015000      18.27026000      -0.34267800       0.57437000      -3.16376800
C       11.22399000       4.86013000      18.72826000       0.19961200      -1.10978700       0.71323000
C        2.80600000       2.43007000      18.49926000      -0.53316600      -0.21530800      -2.74636800
O        5.61200000       3.24009000      19.42826000       0.03995000      -0.04686300       2.71441000
O        4.20900000       5.67015000      19.42826000      -0.08480100       0.08765400       2.98077300
O       11.22399000       7.29020000      19.65726000      -0.00719900       0.75004400       1.28533100
O       11.22399000       4.86013000      19.88626000       0.00365100      -0.71881200      -0.38502800
O        8.41799000       6.48017000      19.42826000      -0.09797200       0.02136500       2.98440200
O        8.41799000       3.24009000      19.42826000       0.12268400      -0.04828200       2.96430900
O        2.80600000       2.43007000      19.65726000      -0.01661300       0.00462900       1.33329300
Pt      14.02999000       6.48017000      14.58218000      -0.20665100       0.15130400      -0.22382900
Pt       5.61200000       6.48017000      14.58218000       0.07084600      -0.09240400      -0.34159900
Pt       8.41799000       6.48017000      14.58218000       0.13379300      -0.00815400      -0.27452700
Pt      11.22399000       6.48017000      14.58218000      -0.00501500      -0.18352900      -0.51583100
Pt      15.43299000       8.91024000      14.58218000      -0.01381400      -0.12269200      -0.16672900
Pt       7.01499000       8.91024000      14.58218000       0.01151400       0.00332000      -0.24915100
Pt       9.82099000       8.91024000      14.58218000      -0.03161200      -0.04120900      -0.27170100
Pt      12.62699000       8.91024000      14.58218000       0.04472200       0.00546700      -0.29781500
Pt       0.00000000       0.00000000      16.87326000      -0.13134900      -0.05567700      -0.14778700
Pt       2.80600000       0.00000000      16.87326000      -0.18564500      -0.08375200      -0.25776700
Pt       5.61200000       0.00000000      16.87326000       0.15646400       0.07484200      -0.27742900
Pt       1.40300000       2.43007000      16.87326000       0.42068900      -0.46256900       1.09745600
Pt       4.20900000       2.43007000      16.87326000      -0.48755800      -0.60890900       1.47422400
Pt       7.01499000       2.43007000      16.87326000       0.00530500      -0.43884000       0.83961200
Pt       9.82099000       2.43007000      16.87326000       0.03577600      -0.52145400       0.50338100
Pt       2.80600000       4.86013000      16.87326000      -0.01633700       0.49787700       0.28423400
Pt       9.82099000       4.05011000      14.58218000       0.15629200       0.11802100      -0.37825200
Pt       8.41799000       4.86013000      16.87326000      -0.17728800       0.20956400       0.44634500
Pt      11.22399000       4.86013000      16.87326000       0.40106700      -0.53471000       0.53482500
Pt       4.20900000       7.29020000      16.87326000       0.00623500       0.32234200       0.49617600
Pt       7.01499000       7.29020000      16.87326000       0.13799700       0.34902800       0.43408300
Pt       9.82099000       7.29020000      16.87326000       0.25981200       0.36761100       1.43071800
Pt      12.62699000       7.29020000      16.87326000      -0.41348700       0.36496900       1.13416100
Pt       8.41799000       0.00000000      16.87326000       0.15184800      -0.25310400      -0.18337700
Pt       5.61200000       4.86013000      16.87326000      -0.03873800       0.20554200       0.64204300
Pt       0.00000000       0.00000000      10.00000000       0.00423500       0.03932800      -0.16121800
Pt      12.62699000       4.05011000      14.58218000      -0.03643400       0.16255500      -0.16407300
Pt      12.62699000       7.29020000      10.00000000       0.02022300       0.03842700      -0.06591000
Pt       9.82099000       7.29020000      10.00000000       0.00654300       0.04264300      -0.05267900
Pt       7.01499000       7.29020000      10.00000000      -0.00044400       0.02020500      -0.03067000
Pt       4.20900000       7.29020000      10.00000000      -0.01278700       0.01961700      -0.06981800