44
Lattice="8.417993093 0.0 0.0 4.208996546 7.290195867 0.0 0.0 0.0 29.657262579" Properties=species:S:1:pos:R:3:forces:R:3 energy=-273.14497833 pbc="T T T"
C        8.41799000       6.48017000      18.27026000      -0.05111100      -0.12273500      -3.30146100
C        8.41799000       1.62004000      18.27026000       0.34989600      -0.25671300      -2.81286900
C        5.61200000       2.43007000      18.49926000      -0.00477400       0.17317600      -2.47895400
C        2.80600000       3.24009000      18.27026000      -0.31228100       0.27262700      -2.91858200
O        8.41799000       1.62004000      19.42826000       0.02854200      -0.09094000       2.81748500
O        8.41799000       6.48017000      19.42826000      -0.00182000       0.02849500       3.02106700
O        5.61200000       2.43007000      19.65726000       0.00110100      -0.02906200       1.06996800
O        2.80600000       3.24009000      19.42826000      -0.03965000       0.08628500       2.85364200
Pt       8.41799000       4.86013000      16.87326000      -0.18063400       0.44361300       0.33643200
Pt       5.61200000       4.86013000      16.87326000      -0.00270400       0.57110500      -0.27439800
Pt       2.80600000       4.86013000      16.87326000       0.19248500       0.20458100       0.49644400
Pt       4.20900000       4.05011000      14.58218000       0.03500100       0.06331700      -0.53338000
Pt       4.20900000       2.43007000      16.87326000       0.54907700       0.01516900       1.49392700
Pt       1.40300000       2.43007000      16.87326000      -0.13705700      -0.05631100       0.66344600
Pt       5.61200000       0.00000000      16.87326000      -0.06456400      -0.57569700       0.34430600
Pt       2.80600000       0.00000000      16.87326000      -0.00123000      -0.50316400       0.39828800
Pt       0.00000000       0.00000000      16.87326000       0.09419800      -0.28996700       0.48169500
Pt       8.41799000       6.48017000      14.58218000      -0.01862200      -0.02714400      -0.60846400
Pt       5.61200000       6.48017000      14.58218000       0.01366500      -0.05509800      -0.24969100
Pt      11.22399000       6.48017000      14.58218000       0.01337200      -0.09333100      -0.20703600
Pt       7.01499000       4.05011000      14.58218000       0.04012300      -0.02451400      -0.26722900
Pt       7.01499000       2.43007000      16.87326000      -0.41898400       0.05550600       1.49242200
Pt       0.00000000       0.00000000      10.00000000      -0.00799700       0.00552500      -0.13580700
Pt       2.80600000       1.62004000      14.58218000       0.11121500       0.06161500      -0.33030100
Pt       2.80600000       0.00000000      10.00000000       0.01335800       0.02683600      -0.14492600
Pt       5.61200000       0.00000000      10.00000000      -0.00735600       0.00676900      -0.11308700
Pt       1.40300000       2.43007000      10.00000000      -0.00263600       0.00163700      -0.03851800
Pt       4.20900000       2.43007000      10.00000000       0.00667900      -0.04205400      -0.09210500
Pt       7.01499000       2.43007000      10.00000000      -0.00257600       0.02336100      -0.07538900
Pt       2.80600000       4.86013000      10.00000000      -0.03591100       0.02645400      -0.07529100
Pt       5.61200000       4.86013000      10.00000000       0.03032500       0.01038900      -0.06956400
Pt       8.41799000       4.86013000      10.00000000       0.00255400      -0.02099700      -0.09609200
Pt       5.61200000       1.62004000      14.58218000      -0.07908600       0.01435800      -0.54267400
Pt       1.40300000       0.81002000      12.29109000      -0.00072600      -0.12459100       0.11296500
Pt       7.01499000       0.81002000      12.29109000      -0.00426400      -0.03735400      -0.03750500
Pt       2.80600000       3.24009000      12.29109000       0.06218300      -0.01251200       0.14639000
Pt       5.61200000       3.24009000      12.29109000      -0.02555000      -0.03207400       0.08650100
Pt       8.41799000       3.24009000      12.29109000      -0.04084300      -0.02079300       0.21075100
Pt       4.20900000       5.67015000      12.29109000      -0.01223100       0.07453200       0.03996600
Pt       7.01499000       5.67015000      12.29109000       0.01217800       0.04394000       0.05066300
Pt       9.82099000       5.67015000      12.29109000      -0.00422300       0.05774600       0.08873600
Pt       8.41799000       1.62004000      14.58218000      -0.03126100       0.15405400      -0.43421500
Pt       4.20900000       0.81002000      12.29109000       0.00490500      -0.02999400       0.07800300
Pt       9.82099000       4.05011000      14.58218000      -0.07276400       0.02395600      -0.44555900
44
Lattice="8.417993093 0.0 0.0 4.208996546 7.290195867 0.0 0.0 0.0 29.657262579" Properties=species:S:1:pos:R:3:forces:R:3 energy=-269.97311311 pbc="T T T"
C        5.61200000       3.24009000      18.27026000      -0.45596200      -0.50637100      -2.80053200
C        8.41799000       1.62004000      18.27026000      -1.22143600       1.87602900      -2.90943700
C        7.01499000       5.67015000      18.27026000       1.75007400      -1.40340400      -3.09086800
C        1.40300000       0.00000000      18.49926000       0.05527400       0.08974800      -1.77712900
O        8.41799000       1.62004000      19.42826000      -1.60286000       1.87795100       2.73254200
O        5.61200000       3.24009000      19.42826000      -0.10468300      -0.07234100       2.80838500
O        7.01499000       5.67015000      19.42826000       1.74759400      -1.82562300       2.73587100
O        1.40300000       0.00000000      19.65726000      -0.00451600      -0.03886000       0.63735500
Pt       8.41799000       4.86013000      16.87326000       0.47237400       0.30294100       0.63399400
Pt       5.61200000       4.86013000      16.87326000      -0.31616500      -0.34301700       0.59420800
Pt       2.80600000       4.86013000      16.87326000      -0.50193300       0.04813200      -0.21824900
Pt       4.20900000       4.05011000      14.58218000       0.03083900       0.07966600      -0.33929000
Pt       4.20900000       2.43007000      16.87326000      -0.10297200       0.01111900       0.55185400
Pt       1.40300000       2.43007000      16.87326000       0.14281100       0.60739300       0.42319700
Pt       5.61200000       0.00000000      16.87326000       0.03973900      -0.34488400      -0.32328300
Pt       2.80600000       0.00000000      16.87326000      -0.03247300       0.43774500       1.46316900
Pt       0.00000000       0.00000000      16.87326000      -0.01979000      -0.53236400       1.46243600
Pt       8.41799000       6.48017000      14.58218000       0.01698100       0.19259400      -0.24994900
Pt       5.61200000       6.48017000      14.58218000      -0.12896000      -0.20179100      -0.79237400
Pt      11.22399000       6.48017000      14.58218000       0.12242300       0.12714900       0.04914700
Pt       7.01499000       4.05011000      14.58218000       0.03404900      -0.08828200      -0.72687000
Pt       7.01499000       2.43007000      16.87326000       0.06555300      -0.32490900       0.72283200
Pt       0.00000000       0.00000000      10.00000000       0.00701300      -0.01561100      -0.08830800
Pt       2.80600000       1.62004000      14.58218000       0.16377500      -0.04150000      -0.18657300
Pt       2.80600000       0.00000000      10.00000000      -0.01150000      -0.00613400      -0.10982400
Pt       5.61200000       0.00000000      10.00000000       0.01505800       0.00515500      -0.07458600
Pt       1.40300000       2.43007000      10.00000000      -0.02608800      -0.00265100      -0.09075700
Pt       4.20900000       2.43007000      10.00000000       0.03558500      -0.01998200      -0.07031700
Pt       7.01499000       2.43007000      10.00000000      -0.02306700      -0.01411900      -0.10273400
Pt       2.80600000       4.86013000      10.00000000       0.02210100       0.01782900      -0.12436700
Pt       5.61200000       4.86013000      10.00000000       0.00239000      -0.00208500      -0.09523000
Pt       8.41799000       4.86013000      10.00000000      -0.04871000      -0.01480400      -0.13173100
Pt       5.61200000       1.62004000      14.58218000       0.00964700      -0.03761300      -0.41794500
Pt       1.40300000       0.81002000      12.29109000       0.03418300       0.00833300      -0.05807100
Pt       7.01499000       0.81002000      12.29109000       0.04416100       0.00013300       0.18681200
Pt       2.80600000       3.24009000      12.29109000      -0.07052100      -0.01472800      -0.03545200
Pt       5.61200000       3.24009000      12.29109000       0.02521500       0.01299800       0.23635100
Pt       8.41799000       3.24009000      12.29109000       0.09863600       0.04729700       0.12371200
Pt       4.20900000       5.67015000      12.29109000      -0.01395500       0.02072900       0.14983100
Pt       7.01499000       5.67015000      12.29109000       0.03689100       0.05985500       0.09932600
Pt       9.82099000       5.67015000      12.29109000       0.02126200      -0.08322600       0.03194400
Pt       8.41799000       1.62004000      14.58218000      -0.16706100       0.06247600      -0.68208600
Pt       4.20900000       0.81002000      12.29109000      -0.09295400      -0.05531000       0.06888200
Pt       9.82099000       4.05011000      14.58218000      -0.04802100       0.10433400      -0.21588800
44
Lattice="8.417993093 0.0 0.0 4.208996546 7.290195867 0.0 0.0 0.0 29.886262579" Properties=species:S:1:pos:R:3:forces:R:3 energy=-271.54092636 pbc="T T T"
C        5.61200000       6.48017000      18.27026000      -0.84578500       1.63663500      -3.33312700
C        1.40300000       2.43007000      18.72826000       0.11307600       0.17740800       0.39174500
C        7.01499000       0.00000000      18.49926000      -0.65603800       0.21086200      -2.83057800
C        7.01499000       4.86013000      18.49926000       2.09645600      -2.06300200      -2.56286000
O        1.40300000       2.43007000      19.88626000      -0.03297300      -0.01306900      -0.19779300
O        5.61200000       6.48017000      19.42826000      -1.54493800       1.82703300       2.95061600
O        7.01499000       0.00000000      19.65726000       0.01020300      -0.03316500       1.40977500
O        7.01499000       4.86013000      19.65726000       1.16038400      -1.43567800       1.22306200
Pt       8.41799000       4.86013000      16.87326000      -0.51250500       0.09068500       1.24024700
Pt       5.61200000       4.86013000      16.87326000       0.13640000      -0.64604700       1.40526600
Pt       2.80600000       4.86013000      16.87326000      -0.06264700      -0.33456000      -0.32744400
Pt       4.20900000       4.05011000      14.58218000       0.14319300       0.09223900       0.03322400
Pt       4.20900000       2.43007000      16.87326000       0.20860400       0.00420400      -0.23978200
Pt       1.40300000       2.43007000      16.87326000       0.21926500       0.31259000       0.77138100
Pt       5.61200000       0.00000000      16.87326000       0.36199700       0.08348400       1.22327100
Pt       2.80600000       0.00000000      16.87326000       0.30009500       0.18281600       0.44726800
Pt       0.00000000       0.00000000      16.87326000      -0.60170300      -0.30555000       1.51072400
Pt       8.41799000       6.48017000      14.58218000       0.15799300       0.13866000      -0.19525400
Pt       5.61200000       6.48017000      14.58218000      -0.12708100       0.09767200      -0.60122200
Pt      11.22399000       6.48017000      14.58218000       0.00122400      -0.01507200      -0.59303100
Pt       7.01499000       4.05011000      14.58218000      -0.04128700      -0.13859700      -0.56998700
Pt       7.01499000       2.43007000      16.87326000      -0.46491000       0.01929900      -0.27483000
Pt       0.00000000       0.00000000      10.00000000      -0.02244100       0.00228400      -0.09039700
Pt       2.80600000       1.62004000      14.58218000      -0.07662700       0.14686800      -0.22677100
Pt       2.80600000       0.00000000      10.00000000       0.01224400       0.00002300      -0.02128500
Pt       5.61200000       0.00000000      10.00000000       0.01408700      -0.00667100      -0.25456900
Pt       1.40300000       2.43007000      10.00000000      -0.03342500      -0.00315400      -0.15084600
Pt       4.20900000       2.43007000      10.00000000       0.03144000      -0.02000600      -0.11220100
Pt       7.01499000       2.43007000      10.00000000       0.00444400      -0.02471400      -0.06183100
Pt       2.80600000       4.86013000      10.00000000      -0.00354200       0.00857600      -0.06119200
Pt       5.61200000       4.86013000      10.00000000      -0.01612300       0.01219800      -0.11996900
Pt       8.41799000       4.86013000      10.00000000       0.00825100       0.01172600      -0.13123700
Pt       5.61200000       1.62004000      14.58218000      -0.02463500       0.00422700      -0.29596500
Pt       1.40300000       0.81002000      12.29109000       0.01448200       0.09560000       0.20120900
Pt       7.01499000       0.81002000      12.29109000      -0.10189300      -0.08114100       0.14885300
Pt       2.80600000       3.24009000      12.29109000      -0.01906900      -0.05043400       0.01639800
Pt       5.61200000       3.24009000      12.29109000      -0.01223400       0.05979900       0.11913300
Pt       8.41799000       3.24009000      12.29109000       0.12104700       0.05655800       0.08745000
Pt       4.20900000       5.67015000      12.29109000       0.01588700      -0.02034200       0.19217400
Pt       7.01499000       5.67015000      12.29109000       0.00295500      -0.10395500       0.08853800
Pt       9.82099000       5.67015000      12.29109000      -0.06115200       0.05649200       0.01852300
Pt       8.41799000       1.62004000      14.58218000       0.10713500       0.05789000      -0.22853900
Pt       4.20900000       0.81002000      12.29109000       0.08625200      -0.05360300       0.08794900
Pt       9.82099000       4.05011000      14.58218000      -0.06611200      -0.03706600      -0.08610000
44
Lattice="8.417993093 0.0 0.0 4.208996546 7.290195867 0.0 0.0 0.0 29.657262579" Properties=species:S:1:pos:R:3:forces:R:3 energy=-270.81092823 pbc="T T T"
C        2.80600000       3.24009000      18.27026000      -1.28898600      -1.55361700      -3.07645100
C        8.41799000       2.43007000      18.49926000       0.30466900      -0.08260900      -2.73644300
C        4.20900000       4.86013000      18.49926000       1.83251100       2.73316900      -2.36377500
C        5.61200000       2.43007000      18.49926000      -0.12150900      -0.53828900      -2.68543100
O        8.41799000       2.43007000      19.65726000       0.02392400      -0.00726600       1.17872100
O        2.80600000       3.24009000      19.42826000      -1.63521500      -1.79062100       2.78322900
O        4.20900000       4.86013000      19.65726000       1.12296900       1.45347800       1.10837500
O        5.61200000       2.43007000      19.65726000       0.03089700      -0.08723800       1.15285700
Pt       8.41799000       4.86013000      16.87326000      -0.15530500       0.92441400      -0.23573100
Pt       5.61200000       4.86013000      16.87326000      -0.31756000       0.64284300       1.19263400
Pt       2.80600000       4.86013000      16.87326000       0.12289200       0.63639500       1.37230800
Pt       4.20900000       4.05011000      14.58218000       0.05367400      -0.01510900      -0.91085700
Pt       4.20900000       2.43007000      16.87326000       0.50691200      -0.91115800       1.43927500
Pt       1.40300000       2.43007000      16.87326000      -0.50072200      -0.34870200       1.75184400
Pt       5.61200000       0.00000000      16.87326000      -0.25245500      -0.53241900      -0.13812600
Pt       2.80600000       0.00000000      16.87326000       0.13672000      -0.48655000      -0.17965700
Pt       0.00000000       0.00000000      16.87326000       0.10631900      -0.10413800      -0.16517100
Pt       8.41799000       6.48017000      14.58218000      -0.00812500      -0.01391600      -0.22453700
Pt       5.61200000       6.48017000      14.58218000       0.05618200      -0.00970600      -0.34741000
Pt      11.22399000       6.48017000      14.58218000      -0.04987200      -0.14914900      -0.15871900
Pt       7.01499000       4.05011000      14.58218000      -0.07799900       0.14207600      -0.14220600
Pt       7.01499000       2.43007000      16.87326000       0.03608800      -0.27839000       2.43900400
Pt       0.00000000       0.00000000      10.00000000       0.00111000       0.00112500      -0.10666600
Pt       2.80600000       1.62004000      14.58218000       0.01841000       0.11676200      -0.10234200
Pt       2.80600000       0.00000000      10.00000000       0.00493200       0.02153400      -0.16914800
Pt       5.61200000       0.00000000      10.00000000       0.00074800       0.00872800      -0.12890200
Pt       1.40300000       2.43007000      10.00000000       0.00638200       0.00317100      -0.08393500
Pt       4.20900000       2.43007000      10.00000000       0.00301700       0.00080700      -0.05191800
Pt       7.01499000       2.43007000      10.00000000       0.00023000       0.02001800      -0.12806100
Pt       2.80600000       4.86013000      10.00000000       0.00411100      -0.00164600      -0.07499100
Pt       5.61200000       4.86013000      10.00000000      -0.00597600      -0.00662800      -0.08318200
Pt       8.41799000       4.86013000      10.00000000      -0.00105600      -0.04428400      -0.03452300
Pt       5.61200000       1.62004000      14.58218000       0.02008800       0.07931100      -0.32966500
Pt       1.40300000       0.81002000      12.29109000      -0.00013500      -0.04359300      -0.00768200
Pt       7.01499000       0.81002000      12.29109000      -0.00131600       0.02522000      -0.08616200
Pt       2.80600000       3.24009000      12.29109000      -0.02402800      -0.04697400       0.24860100
Pt       5.61200000       3.24009000      12.29109000       0.08139400      -0.08256900       0.19740200
Pt       8.41799000       3.24009000      12.29109000      -0.03839900      -0.16473700       0.09639400
Pt       4.20900000       5.67015000      12.29109000       0.00443400       0.08083800       0.15866800
Pt       7.01499000       5.67015000      12.29109000      -0.00326400       0.11378500       0.14879500
Pt       9.82099000       5.67015000      12.29109000       0.00824300       0.09615700       0.14628900
Pt       8.41799000       1.62004000      14.58218000      -0.04259200       0.08392500      -0.38216700
Pt       4.20900000       0.81002000      12.29109000      -0.00390300      -0.10389600       0.06816800
Pt       9.82099000       4.05011000      14.58218000       0.04156300       0.21945000      -0.34870600
44
Lattice="8.417993093 0.0 0.0 4.208996546 7.290195867 0.0 0.0 0.0 29.886262579" Properties=species:S:1:pos:R:3:forces:R:3 energy=-271.6418142 pbc="T T T"
C        8.41799000       2.43007000      18.49926000       2.06725000      -2.06062000      -2.49721300
C        7.01499000       4.05011000      18.27026000      -0.69823600       1.69905000      -3.21729900
C        4.20900000       4.05011000      18.27026000      -0.67362300      -0.07003000      -3.13728100
C        2.80600000       0.00000000      18.72826000       0.07159500       0.12231300       0.50176100
O        7.01499000       4.05011000      19.42826000      -1.52015200       1.85563900       2.86319600
O        8.41799000       2.43007000      19.65726000       1.17030600      -1.42868500       1.19224200
O        4.20900000       4.05011000      19.42826000      -0.12078300      -0.02377600       2.97980000
O        2.80600000       0.00000000      19.88626000      -0.02268700       0.00311500      -0.25859300
Pt       8.41799000       4.86013000      16.87326000       0.27094600       0.21572500       0.43434200
Pt       5.61200000       4.86013000      16.87326000      -0.16801700      -0.07706500       0.75874900
Pt       2.80600000       4.86013000      16.87326000      -0.04440800       0.29953300       0.51411000
Pt       4.20900000       4.05011000      14.58218000      -0.04470000       0.05313900      -0.66492700
Pt       4.20900000       2.43007000      16.87326000      -0.00084300       0.06571800       0.37022800
Pt       1.40300000       2.43007000      16.87326000      -0.69105200       0.02675700       1.17544700
Pt       5.61200000       0.00000000      16.87326000       0.32538200      -0.15686400      -0.24075800
Pt       2.80600000       0.00000000      16.87326000       0.10773800       0.19947800       0.74189300
Pt       0.00000000       0.00000000      16.87326000      -0.47790100      -0.16611600      -0.29933000
Pt       8.41799000       6.48017000      14.58218000      -0.08290300       0.11739300      -0.21818000
Pt       5.61200000       6.48017000      14.58218000       0.11458400       0.03498100      -0.15487500
Pt      11.22399000       6.48017000      14.58218000       0.00473500      -0.00724500      -0.23621600
Pt       7.01499000       4.05011000      14.58218000      -0.00764500       0.01437100      -0.75698400
Pt       7.01499000       2.43007000      16.87326000       0.30662700      -0.64364100       1.34156700
Pt       0.00000000       0.00000000      10.00000000       0.00578200      -0.04519300      -0.09100600
Pt       2.80600000       1.62004000      14.58218000      -0.09685200      -0.06090800      -0.15063100
Pt       2.80600000       0.00000000      10.00000000      -0.02203100       0.00636800      -0.15865100
Pt       5.61200000       0.00000000      10.00000000       0.02073800      -0.01153800      -0.10351000
Pt       1.40300000       2.43007000      10.00000000       0.01850600       0.01909300      -0.10627400
Pt       4.20900000       2.43007000      10.00000000      -0.00959800       0.00619900      -0.05492100
Pt       7.01499000       2.43007000      10.00000000      -0.01137400       0.02259400      -0.09982000
Pt       2.80600000       4.86013000      10.00000000       0.01533000      -0.01320900      -0.25765000
Pt       5.61200000       4.86013000      10.00000000      -0.00855600       0.00918400      -0.08987100
Pt       8.41799000       4.86013000      10.00000000       0.00459500       0.00958900      -0.04820900
Pt       5.61200000       1.62004000      14.58218000       0.15088100       0.07593800       0.00552400
Pt       1.40300000       0.81002000      12.29109000       0.08149400       0.02380300       0.01722000
Pt       7.01499000       0.81002000      12.29109000       0.02890100       0.03406800       0.07351700
Pt       2.80600000       3.24009000      12.29109000      -0.04864500       0.05193700       0.02500500
Pt       5.61200000       3.24009000      12.29109000       0.01736200      -0.02838200       0.22105200
Pt       8.41799000       3.24009000      12.29109000       0.01225700      -0.07042700       0.12380300
Pt       4.20900000       5.67015000      12.29109000      -0.10611000      -0.04645400       0.12215900
Pt       7.01499000       5.67015000      12.29109000      -0.00442300       0.11242600       0.18958400
Pt       9.82099000       5.67015000      12.29109000       0.10132600      -0.04570700       0.08976200
Pt       8.41799000       1.62004000      14.58218000      -0.03727100      -0.11520700      -0.59060000
Pt       4.20900000       0.81002000      12.29109000      -0.03901100      -0.05390800       0.03833500
Pt       9.82099000       4.05011000      14.58218000       0.04048700       0.04656400      -0.34649600
44
Lattice="8.417993093 0.0 0.0 4.208996546 7.290195867 0.0 0.0 0.0 29.886262579" Properties=species:S:1:pos:R:3:forces:R:3 energy=-271.08670676 pbc="T T T"
C        1.40300000       0.81002000      18.27026000       0.67042700      -1.85894300      -3.14613200
C        4.20900000       0.81002000      18.27026000       0.66449800       0.25571100      -3.29580300
C        8.41799000       4.86013000      18.72826000      -0.00211700       0.97490200       0.75196500
C        8.41799000       2.43007000      18.49926000      -2.09887800       0.96013000      -2.49780300
O        4.20900000       0.81002000      19.42826000       0.10907200       0.01526600       3.04964200
O        1.40300000       0.81002000      19.42826000       1.54471400      -1.85484000       2.86113300
O        8.41799000       4.86013000      19.88626000       0.00219100       0.73192300      -0.34408900
O        8.41799000       2.43007000      19.65726000      -1.16350700       0.61247600       1.06312300
Pt       8.41799000       4.86013000      16.87326000      -0.04950200       0.34208900       0.55615700
Pt       5.61200000       4.86013000      16.87326000      -0.58382700      -0.27723000      -0.27211600
Pt       2.80600000       4.86013000      16.87326000       0.56651600       0.16923600      -0.24392300
Pt       4.20900000       4.05011000      14.58218000       0.02295700      -0.06535400      -0.11506100
Pt       4.20900000       2.43007000      16.87326000       0.28312500       0.47130900       0.50763900
Pt       1.40300000       2.43007000      16.87326000      -0.16666900       0.22827200       1.22446400
Pt       5.61200000       0.00000000      16.87326000       0.33416400       0.09344800       0.42326200
Pt       2.80600000       0.00000000      16.87326000      -0.25555700      -0.08591400       0.72932600
Pt       0.00000000       0.00000000      16.87326000      -0.17377800      -0.66385000       0.46683900
Pt       8.41799000       6.48017000      14.58218000      -0.10294900      -0.20404600      -0.40968700
Pt       5.61200000       6.48017000      14.58218000       0.06249600      -0.05224300      -0.29220200
Pt      11.22399000       6.48017000      14.58218000       0.03803900       0.08026400      -0.07995400
Pt       7.01499000       4.05011000      14.58218000       0.08132100       0.09207300      -0.20133200
Pt       7.01499000       2.43007000      16.87326000       0.34595500      -0.21770900       1.18715400
Pt       0.00000000       0.00000000      10.00000000       0.00626100       0.04462200      -0.10347200
Pt       2.80600000       1.62004000      14.58218000      -0.13007400       0.22305800      -0.56505300
Pt       2.80600000       0.00000000      10.00000000      -0.01499000      -0.02016200      -0.11182100
Pt       5.61200000       0.00000000      10.00000000      -0.01235900       0.02278900      -0.12452300
Pt       1.40300000       2.43007000      10.00000000      -0.01145800       0.01437600      -0.08417300
Pt       4.20900000       2.43007000      10.00000000      -0.01117500      -0.02329600      -0.21281600
Pt       7.01499000       2.43007000      10.00000000       0.01207200       0.03121900      -0.10552700
Pt       2.80600000       4.86013000      10.00000000      -0.00179200      -0.03382500      -0.09803200
Pt       5.61200000       4.86013000      10.00000000       0.02843600      -0.02854800      -0.08881100
Pt       8.41799000       4.86013000      10.00000000      -0.04090300      -0.00249800      -0.10877300
Pt       5.61200000       1.62004000      14.58218000       0.21869300       0.18597800      -0.27592600
Pt       1.40300000       0.81002000      12.29109000       0.02524900      -0.01250600       0.18342300
Pt       7.01499000       0.81002000      12.29109000      -0.07896000      -0.09809200       0.14335300
Pt       2.80600000       3.24009000      12.29109000       0.11950300      -0.00287200       0.08831800
Pt       5.61200000       3.24009000      12.29109000      -0.13452600      -0.05727200       0.12493700
Pt       8.41799000       3.24009000      12.29109000       0.02685700       0.04552500       0.24063100
Pt       4.20900000       5.67015000      12.29109000      -0.04845000      -0.00059500      -0.02697100
Pt       7.01499000       5.67015000      12.29109000       0.08805000       0.06106500       0.12236600
Pt       9.82099000       5.67015000      12.29109000       0.01397300       0.03085200      -0.03044600
Pt       8.41799000       1.62004000      14.58218000      -0.10162500      -0.08576000      -0.73513300
Pt       4.20900000       0.81002000      12.29109000       0.01314400       0.01653100      -0.02065500
Pt       9.82099000       4.05011000      14.58218000      -0.09461800      -0.05756200      -0.13350200
44
Lattice="8.417993093 0.0 0.0 4.208996546 7.290195867 0.0 0.0 0.0 29.657262579" Properties=species:S:1:pos:R:3:forces:R:3 energy=-271.2641533 pbc="T T T"
C        7.01499000       0.81002000      18.27026000       0.05579200      -1.18350100      -2.92565300
C        9.82099000       4.86013000      18.49926000       2.06903300       2.13489400      -2.30768000
C        5.61200000       3.24009000      18.27026000      -1.10475300       0.63579300      -2.91247200
C        8.41799000       3.24009000      18.27026000      -0.23792700      -1.31214200      -2.90606600
O        9.82099000       4.86013000      19.65726000       1.18800400       1.40796700       1.01324700
O        7.01499000       0.81002000      19.42826000      -0.01259300      -0.19829900       2.74982300
O        5.61200000       3.24009000      19.42826000      -0.14474200       0.08354900       2.76324700
O        8.41799000       3.24009000      19.42826000      -1.50067600      -1.78358100       2.59809700
Pt       8.41799000       4.86013000      16.87326000       0.32195100       0.60983900       1.36642700
Pt       5.61200000       4.86013000      16.87326000      -0.24370200       0.43017400       0.47663900
Pt       2.80600000       4.86013000      16.87326000      -0.49523900      -0.16658100       1.17468600