50
Lattice="8.418 0.0 0.0 -4.209 7.290201849 0.0 0.0 0.0 26.14126" Properties=species:S:1:pos:R:3:forces:R:3 energy=-320.26727555 pbc="T T T"
C        2.90793000       6.63721000      16.32181000       0.01213800      -0.00508100      -0.00175100
C        0.27352000       5.15003000      17.00606000       0.00704500      -0.00523300       0.05990200
C        2.60732000       1.60054000      16.49783000      -0.00715700      -0.00787600       0.00479000
C       -2.32218000       6.15822000      16.58643000       0.01911800      -0.01294300       0.03402800
C        4.08209000       4.12342000      16.45951000       0.00030800       0.00655400      -0.00095700
C        5.53661000       1.62197000      16.46116000       0.00262100      -0.00313600       0.01354300
C       -0.11519000       2.38065000      16.59833000      -0.00374400       0.01156100       0.02208500
O        2.66484000       1.63095000      17.67834000      -0.00345400      -0.00641800      -0.00904600
O       -2.42845000       6.21886000      17.75608000       0.02628900      -0.02158500      -0.02156600
O        3.00541000       6.69500000      17.50497000      -0.00385600       0.00081600       0.00055500
O        0.43362000       5.27034000      18.14126000       0.03463900       0.00441300      -0.00199200
O        4.05507000       4.09537000      17.64305000       0.00205600      -0.00688500      -0.03617300
O       -0.11473000       2.28191000      17.77021000      -0.00450400       0.01521500      -0.02612500
O        5.49284000       1.61109000      17.64463000      -0.00376600      -0.00055300      -0.04451200
Pt      -1.42836000       2.50227000       8.04258000      -0.03443700       0.01825000      -0.00797700
Pt      -0.02687000       3.31288000      10.36753000      -0.00029100      -0.00688800       0.06028000
Pt      -1.41829000       4.12231000      12.75364000      -0.00306100      -0.01608800       0.04839400
Pt       6.94446000       2.49261000      15.11279000      -0.05347600       0.00216700      -0.01198800
Pt      -2.82083000       4.91520000       8.04234000      -0.00916900      -0.01856900      -0.00605200
Pt       1.36572000       5.72371000      10.35268000       0.01084900       0.01115000       0.07921800
Pt      -1.41973000       5.72526000      10.36843000       0.00244700      -0.00096100       0.04971700
Pt       2.77417000       3.30116000      10.35846000       0.01000200       0.00105100       0.06445000
Pt       2.78957000       0.06998000       8.03596000      -0.01955000       0.03209500      -0.02977300
Pt       4.18099000       0.86553000      10.35801000       0.01071700       0.00895100       0.06513500
Pt       2.76437000       1.67527000      12.67128000       0.02326900       0.01829300       0.04018600
Pt       2.67872000       0.04687000      15.11098000      -0.04408100      -0.01503100       0.02276300
Pt       1.38871000       2.49435000       8.03701000       0.01554200      -0.02502800      -0.03111700
Pt       8.29626000       0.02470000      14.76534000       0.03705100       0.00775300      -0.14458900
Pt       1.29723000       2.44385000      15.11794000      -0.02958400      -0.03146700       0.00838700
Pt       5.54372000       4.90944000      15.10384000      -0.01154800      -0.05942500       0.00481800
Pt      -0.03694000       1.70076000      12.59756000       0.02274600       0.03999400      -0.03217800
Pt       4.18921000       4.10438000      12.64363000       0.03792300      -0.03874400       0.01276700
Pt      -0.01218000       4.92923000       8.05538000       0.03653900       0.03089300       0.04983200
Pt       2.76715000       4.90969000      15.04404000      -0.00721300       0.02153700       0.01627300
Pt       5.58878000       0.06750000       8.02790000       0.00079400      -0.00263000      -0.04662100
Pt       2.72740000       6.51407000      12.55504000      -0.06826500      -0.03594900      -0.03893100
Pt       6.99172000       0.87286000      10.30846000       0.02368000      -0.03146400       0.00623500
Pt       2.78636000       4.91901000       8.02740000      -0.00729100       0.01797200      -0.04122300
Pt       5.55419000       0.08796000      15.04197000       0.00587900      -0.01792600      -0.00008000
Pt       4.18700000       5.72953000      10.30854000      -0.02260100       0.04813200       0.00477800
Pt      -0.00525000       4.95651000      15.16398000       0.01371500       0.01719700      -0.06193300
Pt       4.19113000       2.49571000       8.03317000       0.01707000       0.01496300      -0.05472300
Pt       5.59242000       3.30381000      10.37190000      -0.01739200      -0.01350200       0.07501600
Pt      -2.82647000       6.53013000      12.59896000       0.05083600      -0.00967800      -0.03025600
Pt       4.11879000       2.47315000      15.06605000       0.02283600       0.00997000      -0.05071200
Pt       5.58111000       1.69678000      12.64558000      -0.01844000       0.06634800       0.01558200
Pt      -0.04503000       6.53647000      12.71582000       0.00314200      -0.01912900       0.01583900
Pt      -0.01472000       0.06474000       8.00000000       0.00105800       0.01160700      -0.07953200
Pt       1.37978000       0.87123000      10.32396000      -0.05574500      -0.02344600       0.02743100
Pt       1.36083000       4.10070000      12.71895000      -0.02168300       0.01875000       0.00780300
50
Lattice="8.418 0.0 0.0 -4.209 7.290201849 0.0 0.0 0.0 26.11329" Properties=species:S:1:pos:R:3:forces:R:3 energy=-320.27467095 pbc="T T T"
C        2.94774000       6.66102000      16.32012000       0.01449800      -0.00791400       0.03210500
C        0.37014000       5.16229000      16.98716000      -0.02640500      -0.01524700       0.07566300
C        2.57529000       1.57830000      16.50948000      -0.01185300      -0.00444500       0.02429200
C       -2.25443000       6.10022000      16.59804000       0.00124700       0.00328500       0.02303200
C        4.07243000       4.11769000      16.46055000      -0.00226000       0.00750300       0.00169700
C        5.52001000       1.61530000      16.46215000       0.00435500      -0.00536200       0.01014000
C       -0.13254000       2.42106000      16.60183000       0.00564300       0.00444000       0.02071400
O        2.63767000       1.61207000      17.68930000      -0.00244500       0.00180000      -0.01286200
O       -2.31264000       6.13208000      17.77236000      -0.01191400       0.00460300      -0.03716200
O        3.05320000       6.72107000      17.50227000       0.00241700       0.00312500      -0.00510600
O        0.58532000       5.28190000      18.11329000      -0.00991600      -0.00174500      -0.00175600
O        4.04477000       4.09182000      17.64432000      -0.00514200      -0.00123100      -0.03057500
O       -0.13215000       2.34807000      17.77565000      -0.00365600      -0.01181800      -0.02377300
O        5.47918000       1.60481000      17.64585000      -0.00118600      -0.00965700      -0.03602100
Pt      -1.43091000       2.50309000       8.04123000      -0.03291600       0.01794200       0.00223100
Pt      -0.02780000       3.31290000      10.36566000      -0.00374200       0.00188400       0.04736000
Pt      -1.41727000       4.12322000      12.75410000       0.00100000      -0.00412400       0.04768000
Pt       6.93766000       2.49320000      15.11199000      -0.03319600      -0.00369000      -0.01287100
Pt      -2.82373000       4.91579000       8.03954000      -0.00563800      -0.02079500       0.01177200
Pt       1.36403000       5.72377000      10.35168000       0.01608300       0.00789400       0.06484400
Pt      -1.42126000       5.72455000      10.36592000       0.00384300       0.00039300       0.04593300
Pt       2.77304000       3.30053000      10.35828000       0.01094300      -0.00164600       0.05839900
Pt       2.78707000       0.07012000       8.03309000      -0.02722800       0.03781900      -0.01353100
Pt       4.17881000       0.86551000      10.35775000       0.00219400       0.01160300       0.06099100
Pt       2.76358000       1.67471000      12.67498000       0.02788800       0.01829400       0.04475300
Pt       2.67677000       0.04130000      15.11985000      -0.01981200      -0.00875400       0.03058100
Pt       1.38608000       2.49492000       8.03532000       0.01559800      -0.03558200      -0.02475800
Pt       8.30216000       0.02841000      14.75591000       0.04256600       0.00617800      -0.16517100
Pt       1.29296000       2.44252000      15.12327000      -0.01205600      -0.03020200       0.02859900
Pt       5.54110000       4.90448000      15.10570000       0.00386500      -0.04600900      -0.00788800
Pt      -0.03701000       1.70216000      12.59653000       0.03630500       0.04304700      -0.04323200
Pt       4.18936000       4.10478000      12.64648000       0.05197600      -0.04384600       0.01478400
Pt      -0.01405000       4.93028000       8.05075000       0.03291300       0.02928800       0.05986300
Pt       2.76831000       4.91620000      15.04444000       0.02078000      -0.00271100       0.01209400
Pt       5.58666000       0.06794000       8.02636000      -0.00049300      -0.00066000      -0.03029800
Pt       2.72647000       6.51364000      12.55484000      -0.07427800      -0.04125700      -0.05625800
Pt       6.98974000       0.87337000      10.30857000       0.02271200      -0.03799500       0.00157500
Pt       2.78363000       4.91951000       8.02622000      -0.00733000       0.02039400      -0.03560900
Pt       5.55808000       0.08678000      15.04437000       0.01106700       0.00372200       0.01401600
Pt       4.18542000       5.72927000      10.30812000      -0.02559300       0.04455900       0.01366500
Pt      -0.00158000       4.95619000      15.16110000       0.03307800       0.02306600      -0.08272400
Pt       4.18899000       2.49653000       8.03258000       0.01477100       0.01559300      -0.03966900
Pt       5.59054000       3.30355000      10.37328000      -0.01801800      -0.01223100       0.07538600
Pt      -2.82556000       6.53013000      12.59884000       0.05068600      -0.00807300      -0.05166000
Pt       4.11569000       2.47248000      15.06837000      -0.00083500      -0.00547500      -0.05773200
Pt       5.58099000       1.69650000      12.64757000      -0.02605400       0.08165400       0.00721100
Pt      -0.04613000       6.53709000      12.71435000       0.00164400      -0.01573800       0.00513300
Pt      -0.01706000       0.06552000       8.00000000      -0.00261700       0.01133200      -0.08211800
Pt       1.37824000       0.87105000      10.32423000      -0.05209000      -0.02682500       0.02304600
Pt       1.36114000       4.09999000      12.71602000      -0.01140000       0.00361500      -0.00678100
50
Lattice="8.418 0.0 0.0 -4.209 7.290201849 0.0 0.0 0.0 26.09256" Properties=species:S:1:pos:R:3:forces:R:3 energy=-320.27148489 pbc="T T T"
C        2.98391000       6.67619000      16.32007000       0.00472400       0.00799400       0.04170800
C        0.42994000       5.16681000      16.97278000      -0.02004200      -0.00991300       0.06389600
C        2.54788000       1.56145000      16.52259000      -0.00616400      -0.00146700       0.03387300
C       -2.21377000       6.06407000      16.60295000       0.00008200      -0.00776100       0.01929600
C        4.06826000       4.11175000      16.46361000      -0.00709300       0.00973700      -0.00488500
C        5.50835000       1.60732000      16.46424000       0.00383900      -0.01122700      -0.00444200
C       -0.14693000       2.44679000      16.60302000      -0.00138000       0.00121000       0.02131500
O        2.61381000       1.59918000      17.70174000       0.00426900      -0.00087300      -0.01552200
O       -2.24198000       6.07723000      17.77885000      -0.03532500       0.01364600      -0.02102500
O        3.09709000       6.74294000      17.50090000      -0.00222900      -0.00277100      -0.03201500
O        0.67731000       5.28480000      18.09256000      -0.04442600      -0.00897400      -0.00820000
O        4.04050000       4.08980000      17.64765000      -0.01060000      -0.00854500      -0.03245000
O       -0.14827000       2.38906000      17.77775000      -0.00855600      -0.01907000      -0.02026100
O        5.47120000       1.59541000      17.64802000      -0.00822700      -0.00381300      -0.02240500
Pt      -1.43407000       2.50411000       8.04055000      -0.03429200       0.01551600       0.00951000
Pt      -0.02912000       3.31360000      10.36288000      -0.00351900       0.00182300       0.04056400
Pt      -1.41498000       4.12505000      12.75396000       0.00357200      -0.01000200       0.04736300
Pt       6.93046000       2.49324000      15.10919000      -0.00963000       0.00240000      -0.00488300
Pt      -2.82662000       4.91605000       8.03794000      -0.00872200      -0.02373100       0.01735100
Pt       1.36239000       5.72391000      10.34965000       0.00920100       0.00686700       0.05868000
Pt      -1.42271000       5.72415000      10.36332000       0.01386700       0.00299600       0.04595700
Pt       2.77240000       3.29989000      10.35744000       0.00726300      -0.00252700       0.05580700
Pt       2.78415000       0.07091000       8.03152000      -0.02877400       0.04096000      -0.00969600
Pt       4.17684000       0.86600000      10.35759000       0.00500300       0.01165800       0.05548500
Pt       2.76303000       1.67401000      12.67922000       0.02741300       0.01875100       0.05156700
Pt       2.67683000       0.03519000      15.13011000       0.01204500       0.00885100       0.00709500
Pt       1.38363000       2.49478000       8.03358000       0.01196700      -0.03124700      -0.02172400
Pt       8.30947000       0.03182000      14.74214000       0.00934500      -0.00188200      -0.14086300
Pt       1.28940000       2.44023000      15.13118000       0.00241000      -0.02915000       0.01667600
Pt       5.53891000       4.89903000      15.10681000       0.03251900      -0.03271400      -0.01607400
Pt      -0.03652000       1.70431000      12.59253000       0.03607600       0.04799900      -0.04315500
Pt       4.18975000       4.10488000      12.64906000       0.04965000      -0.04382800       0.00395900
Pt      -0.01584000       4.93122000       8.04734000       0.02462900       0.03172000       0.05943100
Pt       2.77254000       4.92244000      15.04639000       0.02868900      -0.02791100       0.01320100
Pt       5.58406000       0.06789000       8.02531000      -0.00490900       0.00297400      -0.02524300
Pt       2.72428000       6.51331000      12.55282000      -0.07307900      -0.03810700      -0.04585300
Pt       6.98724000       0.87380000      10.30795000       0.03057800      -0.04175500      -0.00420600
Pt       2.78054000       4.92046000       8.02507000      -0.00629100       0.02196400      -0.03155700
Pt       5.56389000       0.08702000      15.04781000       0.00716000      -0.00307800      -0.00861300
Pt       4.18405000       5.72858000      10.30780000      -0.02503900       0.04846300       0.01181400
Pt       0.00479000       4.95544000      15.15619000       0.02803100       0.02438800      -0.07176900
Pt       4.18641000       2.49742000       8.03306000       0.01449500       0.01609700      -0.03577100
Pt       5.58843000       3.30350000      10.37517000      -0.01394800      -0.00580300       0.07218400
Pt      -2.82383000       6.52987000      12.59626000       0.05255600      -0.00780600      -0.05970400
Pt       4.11020000       2.47065000      15.07111000       0.00201200      -0.02004600      -0.04508300
Pt       5.58012000       1.69669000      12.64846000      -0.01906600       0.07875500       0.01478800
Pt      -0.04694000       6.53888000      12.71227000       0.00648000      -0.01952200       0.02278200
Pt      -0.01927000       0.06646000       8.00000000      -0.00507400       0.01270100      -0.09035800
Pt       1.37696000       0.87073000      10.32387000      -0.04788900      -0.02587700       0.02259000
Pt       1.36276000       4.09841000      12.71141000      -0.00360200       0.01193300       0.00886300
50
Lattice="8.418 0.0 0.0 -4.209 7.290201849 0.0 0.0 0.0 26.12394" Properties=species:S:1:pos:R:3:forces:R:3 energy=-320.27361336 pbc="T T T"
C        2.93357000       6.65205000      16.31988000       0.01510600       0.00532000       0.04573100
C        0.33703000       5.15828000      16.99484000      -0.01796000      -0.01227400       0.06008300
C        2.58753000       1.58626000      16.50468000      -0.01515300      -0.00844500       0.02256400
C       -2.27821000       6.12083000      16.59470000       0.01177000      -0.00795200       0.01753800
C        4.07379000       4.11931000      16.46004000       0.00223500       0.00886400      -0.00392100
C        5.52455000       1.61870000      16.46160000       0.01137000      -0.01177600      -0.00728700
C       -0.12601000       2.40576000      16.60070000       0.00137300       0.01268000       0.01582400
O        2.64710000       1.61839000      17.68492000      -0.00091200      -0.00038500      -0.01843300
O       -2.35157000       6.16149000      17.76776000      -0.00170600      -0.00320400      -0.03178800
O        3.03778000       6.71441000      17.50245000      -0.00555500      -0.01126600      -0.02210900
O        0.53539000       5.27871000      18.12394000       0.00975400       0.00111400      -0.00201500
O        4.04585000       4.09221000      17.64363000       0.00074100       0.00023500      -0.02781900
O       -0.12606000       2.32515000      17.77396000      -0.00286600      -0.00307800      -0.02414500
O        5.48274000       1.60682000      17.64499000      -0.00186800      -0.00394000      -0.01978600
Pt      -1.42986000       2.50276000       8.04171000      -0.03520500       0.02075600      -0.00400400
Pt      -0.02743000       3.31283000      10.36641000      -0.00450000      -0.00347100       0.05307800
Pt      -1.41784000       4.12274000      12.75404000      -0.00243700      -0.00556300       0.05061300
Pt       6.94048000       2.49301000      15.11261000      -0.04124900      -0.00670200      -0.01605400
Pt      -2.82267000       4.91560000       8.04049000      -0.00402200      -0.02201800       0.00432400
Pt       1.36462000       5.72373000      10.35218000       0.01334200       0.01314500       0.07248700
Pt      -1.42067000       5.72476000      10.36680000       0.00406000       0.00382700       0.04711400
Pt       2.77341000       3.30076000      10.35843000       0.01066600      -0.00181000       0.05741400
Pt       2.78806000       0.06992000       8.03403000      -0.02681100       0.03668300      -0.02133200
Pt       4.17957000       0.86544000      10.35782000       0.00438900       0.01236300       0.05856400
Pt       2.76385000       1.67498000      12.67357000       0.02771700       0.01651000       0.04585500
Pt       2.67736000       0.04351000      15.11616000      -0.03102300      -0.00750100       0.02708700
Pt       1.38704000       2.49481000       8.03597000       0.01508600      -0.03619500      -0.02572600
Pt       8.29958000       0.02700000      14.76033000       0.04887200       0.01100900      -0.17002100
Pt       1.29458000       2.44318000      15.12077000      -0.02151700      -0.03465500       0.02791400
Pt       5.54228000       4.90656000      15.10501000      -0.01249300      -0.04984700       0.00135800
Pt      -0.03706000       1.70156000      12.59742000       0.03283100       0.03972700      -0.04294600
Pt       4.18924000       4.10470000      12.64542000       0.04722700      -0.04337700       0.01557600
Pt      -0.01340000       4.92990000       8.05234000       0.03648000       0.02840400       0.05741800
Pt       2.76746000       4.91347000      15.04403000       0.01483900       0.01877700       0.02920500
Pt       5.58750000       0.06787000       8.02687000      -0.00186700      -0.00416900      -0.03588500
Pt       2.72699000       6.51376000      12.55518000      -0.07390800      -0.03740100      -0.05195900
Pt       6.99056000       0.87317000      10.30857000       0.02476800      -0.03206700       0.00726100
Pt       2.78479000       4.91928000       8.02668000      -0.00785200       0.01466300      -0.03846100
Pt       5.55616000       0.08714000      15.04319000       0.00844600      -0.00021900       0.00373000
Pt       4.18596000       5.72945000      10.30824000      -0.01961900       0.04655800       0.01195400
Pt      -0.00333000       4.95632000      15.16232000       0.02857100       0.01983700      -0.05596600
Pt       4.18987000       2.49623000       8.03266000       0.01315900       0.01549600      -0.04115600
Pt       5.59135000       3.30367000      10.37270000      -0.02131800      -0.01105300       0.07334300
Pt      -2.82599000       6.53013000      12.59923000       0.05081600      -0.00688900      -0.05109000
Pt       4.11712000       2.47278000      15.06743000       0.00552000      -0.00144900      -0.05000500
Pt       5.58114000       1.69654000      12.64703000      -0.02171500       0.07228100       0.00616000
Pt      -0.04569000       6.53667000      12.71509000       0.00165500      -0.01447600       0.00740500
Pt      -0.01621000       0.06520000       8.00000000       0.00094500       0.00966700      -0.08126500
Pt       1.37878000       0.87116000      10.32416000      -0.05463500      -0.03048900       0.03107100
Pt       1.36085000       4.10045000      12.71750000      -0.01554600       0.00375600      -0.00749700
50
Lattice="8.418 0.0 0.0 -4.209 7.290201849 0.0 0.0 0.0 26.12111" Properties=species:S:1:pos:R:3:forces:R:3 energy=-320.27383875 pbc="T T T"
C        2.93741000       6.65468000      16.31985000       0.01080600       0.00019600       0.01654100
C        0.34635000       5.15953000      16.99265000      -0.02136000      -0.01295400       0.07342000
C        2.58425000       1.58408000      16.50591000      -0.01325900      -0.00596300       0.01550600
C       -2.27166000       6.11538000      16.59577000       0.00824200      -0.00836600       0.02237800
C        4.07321000       4.11885000      16.46003000       0.00214700       0.00930700       0.00425900
C        5.52328000       1.61779000      16.46155000       0.00908500      -0.00903500       0.01569400
C       -0.12759000       2.40972000      16.60107000       0.00129700       0.01056700       0.02024200
O        2.64466000       1.61665000      17.68595000      -0.00171700       0.00060200      -0.00916600
O       -2.34085000       6.15332000      17.76927000      -0.00551900       0.00091600      -0.03966800
O        3.04178000       6.71615000      17.50200000      -0.00088900      -0.00575800       0.01198200
O        0.54901000       5.27958000      18.12111000       0.00309400       0.00156000      -0.01044900
O        4.04549000       4.09201000      17.64374000      -0.00146300       0.00030300      -0.03331000
O       -0.12770000       2.33145000      17.77455000      -0.00213600      -0.00487700      -0.02797700
O        5.48169000       1.60640000      17.64524000      -0.00081300      -0.00607500      -0.04020100
Pt      -1.43012000       2.50284000       8.04158000      -0.03502000       0.02020000      -0.00169500
Pt      -0.02752000       3.31284000      10.36623000      -0.00452700      -0.00311900       0.05170300
Pt      -1.41771000       4.12285000      12.75407000      -0.00203800      -0.00622000       0.05199500
Pt       6.93976000       2.49306000      15.11247000      -0.03937200      -0.00585500      -0.01246100
Pt      -2.82294000       4.91565000       8.04023000      -0.00485300      -0.02091500       0.00663900
Pt       1.36447000       5.72374000      10.35207000       0.01555900       0.01391700       0.07149900
Pt      -1.42083000       5.72470000      10.36658000       0.00417000       0.00367500       0.04927500
Pt       2.77331000       3.30070000      10.35840000       0.01080500      -0.00319300       0.05652300
Pt       2.78781000       0.06996000       8.03377000      -0.02797400       0.03700600      -0.01849400
Pt       4.17937000       0.86545000      10.35780000       0.00313600       0.01207400       0.05772100
Pt       2.76378000       1.67492000      12.67393000       0.02543300       0.01634600       0.04611200
Pt       2.67718000       0.04295000      15.11709000      -0.02718000      -0.01097800       0.02234200
Pt       1.38678000       2.49485000       8.03581000       0.01551200      -0.03585400      -0.02702200
Pt       8.30021000       0.02736000      14.75927000       0.04890900       0.00986800      -0.17340300
Pt       1.29416000       2.44303000      15.12137000      -0.01580300      -0.03323300       0.02833200
Pt       5.54197000       4.90603000      15.10519000      -0.00609900      -0.05064300      -0.00275200
Pt      -0.03706000       1.70171000      12.59724000       0.03315200       0.04171900      -0.04366400
Pt       4.18927000       4.10473000      12.64570000       0.04900600      -0.04413200       0.01739700
Pt      -0.01357000       4.93000000       8.05191000       0.03536100       0.02714300       0.05881200
Pt       2.76764000       4.91418000      15.04413000       0.01850300       0.01132600       0.02194500
Pt       5.58729000       0.06790000       8.02674000      -0.00285000      -0.00282800      -0.03472000
Pt       2.72687000       6.51373000      12.55512000      -0.07180300      -0.03573600      -0.05339600
Pt       6.99036000       0.87322000      10.30858000       0.02357000      -0.03452900       0.00788600
Pt       2.78451000       4.91933000       8.02656000      -0.00775700       0.01596800      -0.03729700
Pt       5.55663000       0.08702000      15.04348000       0.00816700       0.00164800       0.00711500
Pt       4.18581000       5.72941000      10.30820000      -0.02133500       0.04599600       0.01331600
Pt      -0.00292000       4.95629000      15.16205000       0.02975500       0.01963300      -0.06919000
Pt       4.18965000       2.49631000       8.03262000       0.01333000       0.01386600      -0.04234400
Pt       5.59114000       3.30363000      10.37284000      -0.01930200      -0.01047100       0.07428300
Pt      -2.82589000       6.53014000      12.59917000       0.04853600      -0.00619900      -0.05167100
Pt       4.11679000       2.47271000      15.06768000       0.00255900      -0.00185300      -0.05534200
Pt       5.58111000       1.69652000      12.64719000      -0.02385300       0.07197600       0.01016900
Pt      -0.04581000       6.53676000      12.71491000       0.00115300      -0.01351000       0.00927700
Pt      -0.01643000       0.06528000       8.00000000       0.00026700       0.00949700      -0.08014700
Pt       1.37863000       0.87114000      10.32419000      -0.05029800      -0.02812000       0.02902600
Pt       1.36091000       4.10035000      12.71716000      -0.01433400       0.00510400      -0.00702000
50
Lattice="8.418 0.0 0.0 -4.209 7.290201849 0.0 0.0 0.0 26.12207" Properties=species:S:1:pos:R:3:forces:R:3 energy=-320.27374395 pbc="T T T"
C        2.93613000       6.65380000      16.31981000       0.01246900       0.00222600       0.02897700
C        0.34325000       5.15912000      16.99337000      -0.01984100      -0.01178900       0.06932500
C        2.58535000       1.58481000      16.50549000      -0.01391100      -0.00696800       0.01723700
C       -2.27385000       6.11722000      16.59541000       0.01043300      -0.00853500       0.02290800
C        4.07339000       4.11900000      16.46001000       0.00225000       0.00848300       0.00242800
C        5.52369000       1.61810000      16.46154000       0.00976500      -0.01029100       0.01020200
C       -0.12704000       2.40838000      16.60094000       0.00131500       0.01103100       0.01902300
O        2.64548000       1.61723000      17.68559000      -0.00153400       0.00002300      -0.01168800
O       -2.34442000       6.15604000      17.76879000      -0.00472400      -0.00013400      -0.03978300
O        3.04044000       6.71558000      17.50213000      -0.00253400      -0.00795100      -0.00179700
O        0.54446000       5.27929000      18.12207000       0.00529800       0.00092400      -0.01064500
O        4.04560000       4.09207000      17.64369000      -0.00066300       0.00008900      -0.03241700
O       -0.12715000       2.32935000      17.77435000      -0.00220400      -0.00422000      -0.02709100
O        5.48203000       1.60655000      17.64515000      -0.00108300      -0.00549300      -0.03519100
Pt      -1.43003000       2.50281000       8.04161000      -0.03475100       0.01986100      -0.00279600
Pt      -0.02749000       3.31283000      10.36628000      -0.00460900      -0.00247900       0.05243500
Pt      -1.41775000       4.12281000      12.75405000      -0.00314000      -0.00633000       0.05235200
Pt       6.94000000       2.49304000      15.11251000      -0.04048000      -0.00673700      -0.01305300
Pt      -2.82285000       4.91563000       8.04031000      -0.00469700      -0.02106300       0.00549400
Pt       1.36452000       5.72374000      10.35210000       0.01616400       0.01278400       0.07231300
Pt      -1.42078000       5.72472000      10.36665000       0.00415000       0.00353300       0.04847600
Pt       2.77334000       3.30072000      10.35841000       0.01057000      -0.00266400       0.05709800
Pt       2.78790000       0.06994000       8.03385000      -0.02762200       0.03672300      -0.01950300
Pt       4.17944000       0.86545000      10.35780000       0.00399500       0.01219500       0.06030400
Pt       2.76380000       1.67494000      12.67380000       0.02550400       0.01623100       0.04400100
Pt       2.67724000       0.04314000      15.11676000      -0.02806600      -0.00723100       0.02306600
Pt       1.38687000       2.49484000       8.03585000       0.01578600      -0.03589200      -0.02779400