20
Lattice="5.612 0.0 0.0 -2.806 4.860134566 0.0 0.0 0.0 25.1715" Properties=species:S:1:pos:R:3:forces:R:3 energy=-116.90682366 pbc="T T T"
Pt       0.00003000       1.62003000       8.00000000       0.00005800      -0.00003300      -0.00760000
Pt       2.80603000       1.62003000       8.00000000       0.00005800      -0.00003300      -0.00760000
Pt      -1.40297000       4.05009000       8.00000000       0.00005800      -0.00003300      -0.00760000
Pt       1.40303000       4.05009000       8.00000000       0.00005800      -0.00003300      -0.00760000
Pt       0.00000000       0.00000000      10.30783000      -0.00005800       0.00003300       0.07977600
Pt       2.80600000       0.00000000      10.30783000      -0.00005800       0.00003300       0.07977600
Pt      -1.40300000       2.43007000      10.30783000      -0.00005800       0.00003300       0.07977600
Pt       1.40300000       2.43007000      10.30783000      -0.00005800       0.00003300       0.07977600
Pt       1.40297000       0.81004000      12.58452000       0.00003300      -0.00001900      -0.00050600
Pt       4.20897000       0.81004000      12.58452000       0.00003300      -0.00001900      -0.00050600
Pt      -0.00003000       3.24010000      12.58452000       0.00003300      -0.00001900      -0.00050600
Pt       2.80597000       3.24010000      12.58452000       0.00003300      -0.00001900      -0.00050600
Pt       0.00002000       1.62003000      14.86139000      -0.00005100       0.00003000      -0.07681300
Pt       2.80602000       1.62003000      14.86139000      -0.00005100       0.00003000      -0.07681300
Pt      -1.40298000       4.05010000      14.86139000      -0.00005100       0.00003000      -0.07681300
Pt       1.40302000       4.05010000      14.86139000      -0.00005100       0.00003000      -0.07681300
Pt       2.80600000       4.86013000      17.17150000       0.00001800      -0.00001000       0.00514300
Pt       0.00000000       4.86013000      17.17150000       0.00001800      -0.00001000       0.00514300
Pt      -1.40300000       2.43007000      17.17150000       0.00001800      -0.00001000       0.00514300
Pt       1.40300000       2.43007000      17.17150000       0.00001800      -0.00001000       0.00514300
20
Lattice="5.612 0.0 0.0 -2.806 4.860134566 0.0 0.0 0.0 25.16998" Properties=species:S:1:pos:R:3:forces:R:3 energy=-116.9045461 pbc="T T T"
Pt       0.00003000       1.62003000       8.00000000       0.00005800      -0.00003300      -0.02760600
Pt       2.80603000       1.62003000       8.00000000       0.00005800      -0.00003300      -0.02760600
Pt      -1.40297000       4.05009000       8.00000000       0.00005800      -0.00003300      -0.02760600
Pt       1.40303000       4.05009000       8.00000000       0.00005800      -0.00003300      -0.02760600
Pt       0.00000000       0.00000000      10.30414000      -0.00005700       0.00003300       0.12152300
Pt       2.80600000       0.00000000      10.30414000      -0.00005700       0.00003300       0.12152300
Pt      -1.40300000       2.43007000      10.30414000      -0.00005700       0.00003300       0.12152300
Pt       1.40300000       2.43007000      10.30414000      -0.00005700       0.00003300       0.12152300
Pt       1.40297000       0.81004000      12.58396000       0.00003200      -0.00001800      -0.00423400
Pt       4.20897000       0.81004000      12.58396000       0.00003200      -0.00001800      -0.00423400
Pt      -0.00003000       3.24010000      12.58396000       0.00003200      -0.00001800      -0.00423400
Pt       2.80597000       3.24010000      12.58396000       0.00003200      -0.00001800      -0.00423400
Pt       0.00002000       1.62003000      14.86318000      -0.00005000       0.00002900      -0.11345300
Pt       2.80602000       1.62003000      14.86318000      -0.00005000       0.00002900      -0.11345300
Pt      -1.40298000       4.05010000      14.86318000      -0.00005000       0.00002900      -0.11345300
Pt       1.40302000       4.05010000      14.86318000      -0.00005000       0.00002900      -0.11345300
Pt       2.80600000       4.86013000      17.16998000       0.00001800      -0.00001000       0.02377000
Pt       0.00000000       4.86013000      17.16998000       0.00001800      -0.00001000       0.02377000
Pt      -1.40300000       2.43007000      17.16998000       0.00001800      -0.00001000       0.02377000
Pt       1.40300000       2.43007000      17.16998000       0.00001800      -0.00001000       0.02377000
20
Lattice="5.612 0.0 0.0 -2.806 4.860134566 0.0 0.0 0.0 25.16883" Properties=species:S:1:pos:R:3:forces:R:3 energy=-116.90217682 pbc="T T T"
Pt       0.00003000       1.62003000       8.00000000       0.00005700      -0.00003300      -0.04803300
Pt       2.80603000       1.62003000       8.00000000       0.00005700      -0.00003300      -0.04803300
Pt      -1.40297000       4.05009000       8.00000000       0.00005700      -0.00003300      -0.04803300
Pt       1.40303000       4.05009000       8.00000000       0.00005700      -0.00003300      -0.04803300
Pt       0.00000000       0.00000000      10.30136000      -0.00005600       0.00003200       0.14814100
Pt       2.80600000       0.00000000      10.30136000      -0.00005600       0.00003200       0.14814100
Pt      -1.40300000       2.43007000      10.30136000      -0.00005600       0.00003200       0.14814100
Pt       1.40300000       2.43007000      10.30136000      -0.00005600       0.00003200       0.14814100
Pt       1.40297000       0.81004000      12.58353000       0.00003000      -0.00001800      -0.00385400
Pt       4.20897000       0.81004000      12.58353000       0.00003000      -0.00001800      -0.00385400
Pt      -0.00003000       3.24010000      12.58353000       0.00003000      -0.00001800      -0.00385400
Pt       2.80597000       3.24010000      12.58353000       0.00003000      -0.00001800      -0.00385400
Pt       0.00002000       1.62003000      14.86453000      -0.00005000       0.00002900      -0.13739100
Pt       2.80602000       1.62003000      14.86453000      -0.00005000       0.00002900      -0.13739100
Pt      -1.40298000       4.05010000      14.86453000      -0.00005000       0.00002900      -0.13739100
Pt       1.40302000       4.05010000      14.86453000      -0.00005000       0.00002900      -0.13739100
Pt       2.80600000       4.86013000      17.16883000       0.00001800      -0.00001100       0.04113700
Pt       0.00000000       4.86013000      17.16883000       0.00001800      -0.00001100       0.04113700
Pt      -1.40300000       2.43007000      17.16883000       0.00001800      -0.00001100       0.04113700
Pt       1.40300000       2.43007000      17.16883000       0.00001800      -0.00001100       0.04113700
