66
Lattice="11.224 0.0 0.0 -5.612 9.720269132 0.0 0.0 0.0 26.10755" Properties=species:S:1:pos:R:3:forces:R:3 energy=-387.22935794 pbc="T T T"
C        1.39730000       2.38909000      16.94926000       0.00389400       0.00634100      -0.07454600
O        1.39753000       2.37304000      18.10755000      -0.00062100       0.00634200      -0.00428800
Pt      -2.80844000       9.70393000       8.04011000       0.00957800       0.00003400      -0.01167600
Pt       0.00627000       9.69536000       8.00400000       0.00524300      -0.00057500      -0.02411100
Pt       2.80055000       9.69534000       8.00371000      -0.00886700       0.00204100      -0.02471800
Pt       9.82548000       2.41104000       8.03939000      -0.00230600      -0.00464900      -0.00898200
Pt       1.40311000       2.41279000       8.06207000      -0.00074400       0.00148300       0.06722500
Pt       4.20489000       2.41100000       8.03959000       0.00380200      -0.00708800      -0.01276600
Pt       7.01513000       2.40583000       8.01896000       0.00274700      -0.00906400      -0.02303000
Pt       8.41901000       4.83760000       8.02174000       0.00160400      -0.00201500       0.00049700
Pt       0.00215000       4.83961000       8.03960000       0.00236800      -0.00084000      -0.00987800
Pt       2.80425000       4.83943000       8.03975000      -0.00423800       0.00271300      -0.01280000
Pt       5.61197000       4.83738000       8.02144000      -0.00090300      -0.00013900       0.00089800
Pt       7.01546000       7.26849000       8.02216000       0.00017900       0.00023900       0.00178000
Pt      -1.40029000       7.27006000       8.01868000      -0.00068400       0.00421900      -0.02083500
Pt       1.40330000       7.28062000       8.00000000       0.00079900      -0.00726200      -0.01247800
Pt       4.20719000       7.27008000       8.01857000      -0.00207300       0.00166200      -0.02050200
Pt       1.40080000       0.80265000      10.37081000       0.00431600      -0.00226200       0.00754400
Pt       4.20219000       0.79478000      10.32013000      -0.01000900       0.01400900      -0.00711000
Pt       7.01361000       0.79277000      10.31142000       0.00098500      -0.01725500      -0.01385700
Pt       9.82415000       0.79572000      10.32053000       0.00797200       0.00883700       0.00181900
Pt       0.00495000       3.22321000      10.37268000       0.00242800      -0.02515400       0.00310300
Pt       2.79805000       3.22321000      10.37115000      -0.00409000      -0.02626600       0.00590000
Pt       5.60815000       3.22350000      10.31971000      -0.01004900       0.02476200      -0.02788900
Pt       8.41945000       3.22359000      10.32026000       0.00522300       0.02603600      -0.03058200
Pt      -1.40617000       5.64940000      10.32074000      -0.01231500       0.00064300      -0.03222400
Pt       1.40129000       5.64931000      10.32122000      -0.00611900       0.00703800      -0.01803300
Pt       4.20906000       5.64992000      10.32012000       0.00700400       0.00000900      -0.03758900
Pt       7.01338000       5.65237000      10.31912000       0.00234200       0.00882400      -0.01356100
Pt      -2.81173000       8.08415000      10.32009000      -0.01441900       0.01412000      -0.02632200
Pt      -0.00277000       8.08216000      10.31143000       0.02034800       0.01834800      -0.01401200
Pt       2.80525000       8.08295000      10.31116000      -0.01897500       0.01282800      -0.01213200
Pt       5.61506000       9.70430000       8.04043000      -0.00920500      -0.00014300      -0.01129000
Pt       5.57763000       9.65897000      14.89098000       0.00449600       0.02074200      -0.01094400
Pt       2.78260000       1.61672000      12.66717000      -0.01180300      -0.01259900       0.07066700
Pt       1.39622000       7.28124000      14.87683000      -0.00329900       0.00649600       0.02750400
Pt       5.60098000       1.60098000      12.57038000       0.01624400      -0.00687400       0.01625600
Pt       8.42080000       1.60116000      12.57186000      -0.00069800      -0.00623100       0.00779400
Pt      -1.41322000       4.03654000      12.59907000       0.00175700       0.00891700      -0.00146000
Pt       1.40021000       4.00748000      12.67417000      -0.00895900       0.01415800       0.05242400
Pt       4.21098000       4.03718000      12.59703000       0.00310000       0.00231000      -0.00081600
Pt       7.01137000       4.03219000      12.57669000      -0.00326100      -0.01526100       0.02084800
Pt      -2.80809000       6.46642000      12.57838000       0.01187300       0.00369800       0.01349100
Pt       0.00069000       6.45706000      12.57149000       0.00777600       0.00786000       0.00538000
Pt       2.79648000       6.45741000      12.57032000       0.01124800       0.00792400       0.02045400
Pt       5.60596000       6.46668000      12.57765000      -0.00194100       0.00499200       0.01649300
Pt      -4.21367000       8.88978000      12.59911000       0.00403100       0.00213100      -0.00350500
Pt      -1.40997000       8.90067000      12.57170000       0.01485900      -0.00154100       0.00638900
Pt       1.39879000       8.89230000      12.57074000       0.00570000       0.00253300       0.01430400
Pt       4.19992000       7.27516000      14.87704000       0.00296100      -0.00777300       0.01158300
Pt       4.20718000       8.90111000      12.57253000      -0.00929000      -0.00124300       0.00700600
Pt      -2.78332000       9.65952000      14.89043000      -0.01773200       0.02217100      -0.01165900
Pt       0.00139000       9.69822000      14.87713000       0.00676900      -0.01114100       0.02617000
Pt       2.79050000       9.69952000      14.87863000      -0.01004600      -0.01999100       0.02035700
Pt       9.76159000       2.41526000      14.89144000       0.02237000      -0.01938500      -0.00968300
Pt       1.39614000       2.41188000      15.10759000      -0.00252300      -0.00017000       0.06079100
Pt       4.25490000       2.41412000      14.88940000      -0.01989200      -0.01285700      -0.00682200
Pt       7.00763000       2.41049000      14.87657000      -0.00192200       0.00324100       0.01208200
Pt       8.40023000       4.84810000      14.88736000      -0.00325800      -0.00449400       0.00122900
Pt      -0.03131000       4.88886000      14.89184000       0.01390600      -0.01364500      -0.01138700
Pt       2.82709000       4.89066000      14.89200000      -0.02587300      -0.01616300      -0.00896500
Pt       5.61422000       4.84880000      14.88481000       0.00312300      -0.00288200       0.00959100
Pt       7.00821000       7.26195000      14.88768000      -0.00350500      -0.00464500       0.00479000
Pt      -1.40831000       7.27347000      14.87742000      -0.00541800      -0.00714000       0.01138100
Pt       5.61368000       8.08456000      10.31983000       0.01274000       0.00854900      -0.02603200
Pt       0.01554000       1.61702000      12.66982000       0.01125000      -0.00950500       0.07073000
66
Lattice="11.224 0.0 0.0 -5.612 9.720269132 0.0 0.0 0.0 26.10194" Properties=species:S:1:pos:R:3:forces:R:3 energy=-387.22780471 pbc="T T T"
C        1.39784000       2.36569000      16.94383000       0.00266300       0.00933100      -0.04161600
O        1.39804000       2.32901000      18.10194000      -0.00102200       0.01576100      -0.03475800
Pt      -2.80860000       9.70564000       8.03704000       0.00733300       0.00178100      -0.01172200
Pt       0.00622000       9.69695000       8.00332000       0.00360600       0.00043900      -0.03028700
Pt       2.80054000       9.69707000       8.00299000      -0.00473800      -0.00241500      -0.02877600
Pt       9.82601000       2.41244000       8.03672000      -0.00381600      -0.00317200      -0.01126100
Pt       1.40324000       2.41353000       8.06000000      -0.00032100       0.00534000       0.06754200
Pt       4.20458000       2.41224000       8.03688000       0.00295900      -0.00342200      -0.01243300
Pt       7.01518000       2.40635000       8.01725000       0.00220300      -0.00366600      -0.03044800
Pt       8.41884000       4.83891000       8.01979000       0.00031600      -0.00042600      -0.00372600
Pt       0.00245000       4.84037000       8.03702000       0.00232100      -0.00091000      -0.01006100
Pt       2.80438000       4.84031000       8.03697000      -0.00371100       0.00196200      -0.01020500
Pt       5.61205000       4.83892000       8.01950000      -0.00074900       0.00081500      -0.00477800
Pt       7.01544000       7.26998000       8.01960000      -0.00096600      -0.00054700       0.00011100
Pt      -1.39994000       7.27215000       8.01761000       0.00143100       0.00004300      -0.02648800
Pt       1.40342000       7.28141000       8.00000000       0.00047600      -0.00200600      -0.02070500
Pt       4.20710000       7.27193000       8.01751000      -0.00273400       0.00049500      -0.02492500
Pt       1.40126000       0.80454000      10.36999000      -0.00036500      -0.01038000      -0.01415300
Pt       4.19983000       0.79728000      10.31804000       0.00282100       0.00368100      -0.01219800
Pt       7.01349000       0.79370000      10.30925000       0.00147400      -0.02019000      -0.01619600
Pt       9.82643000       0.79798000      10.31771000      -0.00302400      -0.00165100      -0.00532700
Pt       0.00505000       3.22432000      10.37128000       0.00039400      -0.02298300      -0.01216000
Pt       2.79756000       3.22398000      10.37018000      -0.00040100      -0.02112700      -0.00751800
Pt       5.60800000       3.22468000      10.31684000      -0.00640400       0.01488100      -0.03354100
Pt       8.41973000       3.22505000      10.31717000       0.00463100       0.01412500      -0.03145900
Pt      -1.40610000       5.65030000      10.31770000      -0.01132000       0.00533900      -0.03640200
Pt       1.40152000       5.64803000      10.31908000      -0.00374700       0.01756600      -0.02086000
Pt       4.20922000       5.65038000      10.31737000       0.00663100       0.00801500      -0.04409900
Pt       7.01336000       5.65374000      10.31652000       0.00241900       0.00968800      -0.01718600
Pt      -2.81184000       8.08596000      10.31699000      -0.01235300       0.00362200      -0.02913100
Pt      -0.00280000       8.08314000      10.30953000       0.02126200       0.01935000      -0.02080100
Pt       2.80579000       8.08368000      10.30936000      -0.01939400       0.00899900      -0.02193400
Pt       5.61542000       9.70580000       8.03695000      -0.00856500       0.00195900      -0.00919200
Pt       5.57951000       9.66095000      14.88714000      -0.00421000       0.02213700      -0.01475900
Pt       2.78317000       1.61897000      12.66599000      -0.00940100      -0.01337000       0.06626900
Pt       1.39668000       7.28276000      14.87241000      -0.00662200       0.00715400       0.03026100
Pt       5.60091000       1.60262000      12.56626000       0.01815000      -0.00396100       0.02349600
Pt       8.42193000       1.60259000      12.56713000      -0.01188600      -0.00483700       0.01602700
Pt      -1.41395000       4.03868000      12.59517000       0.00328600       0.01085100       0.00856400
Pt       1.39987000       4.00851000      12.67281000      -0.00561500       0.01310100       0.05502300
Pt       4.21269000       4.03924000      12.59322000      -0.00433900       0.00445800       0.00958600
Pt       7.01164000       4.03349000      12.57271000      -0.00050300      -0.01490800       0.02691000
Pt      -2.80810000       6.46819000      12.57438000       0.01089700       0.00075000       0.02164700
Pt       0.00096000       6.45809000      12.56705000       0.00385200       0.00411800       0.02236700
Pt       2.79669000       6.45854000      12.56634000       0.01208500       0.00475600       0.03066700
Pt       5.60620000       6.46862000      12.57357000      -0.00327300       0.00171700       0.02691900
Pt      -4.21302000       8.89077000      12.59525000       0.00487300       0.00452600       0.00376700
Pt      -1.41023000       8.90271000      12.56720000       0.01670900       0.00047500       0.01747900
Pt       1.39901000       8.89350000      12.56665000       0.01004700       0.00057400       0.02529600
Pt       4.20022000       7.27793000      14.87146000       0.00357700      -0.00883900       0.01853700
Pt       4.20830000       8.90353000      12.56705000      -0.01240100      -0.00905900       0.01964200
Pt      -2.78421000       9.66088000      14.88703000      -0.00985200       0.01956000      -0.01310100
Pt       0.00109000       9.70076000      14.87232000       0.01278600      -0.00965600       0.02352700
Pt       2.79211000       9.70146000      14.87252000      -0.01300600      -0.01367600       0.02656200
Pt       9.76254000       2.41770000      14.88811000       0.01746000      -0.01934800      -0.01462300
Pt       1.39708000       2.41499000      15.10262000      -0.00283100       0.00066800       0.07784600
Pt       4.25586000       2.41765000      14.88619000      -0.01590000      -0.01509300      -0.00650500
Pt       7.00904000       2.41191000      14.87115000      -0.00282000       0.00465600       0.01708000
Pt       8.40021000       4.85071000      14.88384000      -0.00104500      -0.00335500       0.00208200
Pt      -0.03214000       4.89011000      14.88861000       0.01637000      -0.00455600      -0.01044500
Pt       2.82767000       4.89103000      14.88818000      -0.02109300      -0.00049400      -0.00905900
Pt       5.61571000       4.85148000      14.88136000      -0.00043300      -0.00433600       0.00860300
Pt       7.00829000       7.26353000      14.88427000      -0.00087800      -0.00284900       0.00184800
Pt      -1.40755000       7.27665000      14.87203000      -0.00504800      -0.01041000       0.01894500
Pt       5.61478000       8.08654000      10.31687000       0.00970900       0.00336800      -0.03250000
Pt       0.01585000       1.61913000      12.66708000       0.01204700      -0.01442200       0.06873600
66
Lattice="11.224 0.0 0.0 -5.612 9.720269132 0.0 0.0 0.0 26.10759" Properties=species:S:1:pos:R:3:forces:R:3 energy=-387.20626412 pbc="T T T"
C        1.39744000       2.38739000      16.94899000       0.00311800       0.00703000      -0.02360500
O        1.39755000       2.36998000      18.10759000      -0.00057200       0.00676200      -0.03284500
Pt      -2.80846000       9.70407000       8.03994000       0.00920400       0.00091400      -0.00525000
Pt       0.00626000       9.69547000       8.00400000       0.00900700      -0.00272700      -0.02058600
Pt       2.80057000       9.69547000       8.00371000      -0.01130200      -0.00223600      -0.02140400
Pt       9.82551000       2.41114000       8.03925000      -0.00178200      -0.00482400      -0.00282400
Pt       1.40313000       2.41286000       8.06198000      -0.00083900       0.00270400       0.05173900
Pt       4.20486000       2.41109000       8.03947000       0.00360100      -0.00705500      -0.00642600
Pt       7.01513000       2.40589000       8.01888000       0.00255900      -0.01399900      -0.00821500
Pt       8.41900000       4.83770000       8.02164000       0.00168500      -0.00162400       0.00286500
Pt       0.00216000       4.83966000       8.03948000       0.00276500      -0.00084900      -0.00354200
Pt       2.80426000       4.83947000       8.03964000      -0.00455500       0.00253100      -0.00638200
Pt       5.61198000       4.83749000       8.02135000      -0.00110500      -0.00027100       0.00276700
Pt       7.01546000       7.26861000       8.02202000       0.00035900       0.00039400       0.00352700
Pt      -1.40027000       7.27020000       8.01864000       0.00439900       0.00700100      -0.00612900
Pt       1.40330000       7.28070000       8.00000000       0.00135300      -0.00235700      -0.00878600
Pt       4.20719000       7.27021000       8.01853000      -0.00811500       0.00325000      -0.00511000
Pt       1.40084000       0.80277000      10.37083000       0.00425400      -0.00317600       0.01074400
Pt       4.20209000       0.79491000      10.32009000      -0.01074900       0.01501600      -0.00718200
Pt       7.01361000       0.79286000      10.31141000       0.00091900      -0.00588800      -0.01422700
Pt       9.82424000       0.79586000      10.32044000       0.00935400       0.00995700       0.00121200
Pt       0.00493000       3.22335000      10.37267000       0.00044000      -0.02557800       0.00529800
Pt       2.79806000       3.22331000      10.37116000      -0.00306000      -0.02552100       0.00863000
Pt       5.60817000       3.22356000      10.31964000      -0.00582200       0.02283700      -0.01879700
Pt       8.41947000       3.22367000      10.32017000       0.00108600       0.02387600      -0.02124000
Pt      -1.40615000       5.64949000      10.32066000      -0.01246000       0.00596500      -0.02344000
Pt       1.40131000       5.64929000      10.32122000      -0.00606800       0.00591400      -0.01882800
Pt       4.20906000       5.64997000      10.32006000       0.00708600       0.00544400      -0.02857500
Pt       7.01338000       5.65250000      10.31905000       0.00238500       0.00903200      -0.01499700
Pt      -2.81172000       8.08428000      10.32000000      -0.01014100       0.01158800      -0.01797600
Pt      -0.00277000       8.08225000      10.31144000       0.01227200       0.01182800      -0.01404500
Pt       2.80529000       8.08302000      10.31118000      -0.00986700       0.00771900      -0.01152600
Pt       5.61511000       9.70443000       8.04025000      -0.00872700       0.00087300      -0.00490000
Pt       5.57770000       9.65906000      14.89080000       0.00759500       0.02170800      -0.01105400
Pt       2.78263000       1.61689000      12.66709000      -0.01566800      -0.01008200       0.05322600
Pt       1.39626000       7.28134000      14.87661000      -0.00452700       0.00282100       0.01982500
Pt       5.60098000       1.60111000      12.57014000       0.01555800      -0.00244900       0.01187200
Pt       8.42086000       1.60125000      12.57162000      -0.00113200      -0.00180500       0.00260100
Pt      -1.41326000       4.03667000      12.59883000       0.00145500       0.00928100       0.00356900
Pt       1.40017000       4.00751000      12.67413000      -0.00826300       0.00973700       0.03673400
Pt       4.21110000       4.03733000      12.59680000       0.00126400       0.00348200       0.00482600
Pt       7.01139000       4.03231000      12.57643000      -0.00270600      -0.00876800       0.01505800
Pt      -2.80809000       6.46656000      12.57813000       0.00847100      -0.00030600       0.00834600
Pt       0.00071000       6.45716000      12.57121000       0.00112400       0.00410400       0.00181200
Pt       2.79651000       6.45749000      12.57008000       0.01550600       0.00498200       0.01395400
Pt       5.60598000       6.46681000      12.57739000       0.00519400      -0.00090600       0.01534800
Pt      -4.21363000       8.88985000      12.59889000       0.00432200       0.00067100       0.00089000
Pt      -1.41000000       8.90082000      12.57144000       0.01055700      -0.00346000       0.00014900
Pt       1.39881000       8.89238000      12.57049000       0.00565200       0.00349100       0.00564000
Pt       4.19995000       7.27537000      14.87675000       0.00007300      -0.00670100       0.00625500
Pt       4.20726000       8.90128000      12.57221000      -0.00704300      -0.00578200       0.00201700
Pt      -2.78332000       9.65961000      14.89030000      -0.02108600       0.02163200      -0.01086600
Pt       0.00135000       9.69843000      14.87688000       0.00359900      -0.00857500       0.01555000
Pt       2.79061000       9.69970000      14.87830000      -0.00539400      -0.01690000       0.01093200
Pt       9.76162000       2.41545000      14.89129000       0.02476200      -0.01579300      -0.00962100
Pt       1.39621000       2.41211000      15.10737000      -0.00289100      -0.00096700       0.04066900
Pt       4.25502000       2.41438000      14.88927000      -0.02137400      -0.01016900      -0.00499700
Pt       7.00774000       2.41060000      14.87628000      -0.00198000       0.00018300       0.00591100
Pt       8.40026000       4.84830000      14.88721000      -0.00112900      -0.00566200      -0.00495100
Pt      -0.03136000       4.88900000      14.89172000       0.01258200      -0.01571500      -0.01172300
Pt       2.82716000       4.89077000      14.89184000      -0.02414800      -0.01837100      -0.00927900
Pt       5.61430000       4.84901000      14.88465000       0.00135100      -0.00308400       0.00512700
Pt       7.00824000       7.26211000      14.88753000      -0.00333500      -0.00218100      -0.00131200
Pt      -1.40827000       7.27372000      14.87714000      -0.00239000      -0.00539700       0.00636800
Pt       5.61374000       8.08470000      10.31975000       0.00914900       0.00496200      -0.01565200
Pt       0.01560000       1.61716000      12.66968000       0.01417000      -0.00851100       0.05282900
66
Lattice="11.224 0.0 0.0 -5.612 9.720269132 0.0 0.0 0.0 26.09329" Properties=species:S:1:pos:R:3:forces:R:3 energy=-387.22590388 pbc="T T T"
C        1.39766000       2.35610000      16.93535000       0.00051900       0.00523500       0.10384100
O        1.39754000       2.31024000      18.09329000       0.00032100       0.01838700      -0.02106000
Pt      -2.80905000       9.70621000       8.03362000       0.00684000       0.00432300      -0.01708400
Pt       0.00621000       9.69746000       8.00247000       0.00499800      -0.00286900      -0.04242700
Pt       2.80051000       9.69774000       8.00209000      -0.00561500      -0.00487400      -0.04207300
Pt       9.82697000       2.41356000       8.03395000      -0.00606600      -0.00474900      -0.02095000
Pt       1.40337000       2.41379000       8.05782000       0.00032300       0.00618800       0.05899400
Pt       4.20369000       2.41340000       8.03395000       0.00590300      -0.00466200      -0.02148500
Pt       7.01521000       2.40578000       8.01637000      -0.00066800       0.00097100      -0.04498000
Pt       8.41865000       4.83933000       8.01759000       0.00282200       0.00108900      -0.01848500
Pt       0.00269000       4.84042000       8.03400000       0.00144600      -0.00254600      -0.01860300
Pt       2.80452000       4.84056000       8.03377000      -0.00386000      -0.00129100      -0.01793200
Pt       5.61216000       4.83935000       8.01719000      -0.00229300       0.00019000      -0.01808900
Pt       7.01552000       7.27009000       8.01741000      -0.00063300       0.00094300      -0.01516800
Pt      -1.39933000       7.27312000       8.01644000      -0.00386800      -0.00191900      -0.04306200
Pt       1.40349000       7.28111000       8.00000000      -0.00022700       0.00286500      -0.03647200
Pt       4.20653000       7.27292000       8.01656000       0.00032900      -0.00082000      -0.04251800
Pt       1.40144000       0.80627000      10.36801000      -0.00195400      -0.02114900      -0.01786200
Pt       4.19744000       0.79954000      10.31352000       0.01349200      -0.00803500      -0.00308800
Pt       7.01347000       0.79329000      10.30650000      -0.00071900      -0.01110700      -0.01688500
Pt       9.82918000       0.79994000      10.31308000      -0.01089100      -0.01151600      -0.00216600
Pt       0.00593000       3.22356000      10.36885000      -0.00704700      -0.00740800      -0.00439600
Pt       2.79621000       3.22316000      10.36840000       0.00800800      -0.00988400      -0.00540200
Pt       5.60705000       3.22533000      10.31226000      -0.00279200       0.00978300      -0.02311200
Pt       8.42008000       3.22576000      10.31245000       0.00269700       0.00823400      -0.01822300
Pt      -1.40638000       5.65006000      10.31306000      -0.00380200       0.00610000      -0.02657300
Pt       1.40158000       5.64581000      10.31449000      -0.00430200       0.02297900      -0.00972500
Pt       4.20924000       5.65031000      10.31266000       0.00340500       0.00913700      -0.02870500
Pt       7.01331000       5.65386000      10.31242000       0.00205700       0.01199100      -0.00307100
Pt      -2.81201000       8.08715000      10.31194000      -0.01008400      -0.00305800      -0.01675400
Pt      -0.00248000       8.08298000      10.30672000       0.01705600       0.02346800      -0.01694200
Pt       2.80568000       8.08363000      10.30621000      -0.01674200       0.01659000      -0.01567500
Pt       5.61574000       9.70631000       8.03342000      -0.00814800       0.00343900      -0.01577600
Pt       5.58089000       9.65996000      14.88096000      -0.01252500       0.02666100      -0.00107400
Pt       2.78331000       1.61954000      12.66576000      -0.01688000      -0.00455500       0.04520200
Pt       1.39656000       7.28297000      14.86568000      -0.00471300       0.00355100       0.04131400
Pt       5.60062000       1.60309000      12.56085000       0.01801400       0.00007600       0.02029600
Pt       8.42288000       1.60332000      12.56078000      -0.01633500      -0.00263500       0.02375000
Pt      -1.41500000       4.04025000      12.59096000       0.01162500       0.00578500       0.00259200
Pt       1.39998000       4.00954000      12.67152000      -0.00485100      -0.00522500       0.04336100
Pt       4.21374000       4.04040000      12.58859000      -0.00610300       0.00283800       0.00319500
Pt       7.01173000       4.03360000      12.56815000      -0.00062500      -0.01334700       0.01822600
Pt      -2.80798000       6.46878000      12.56965000       0.01089400       0.00620900       0.01428200
Pt       0.00099000       6.45809000      12.56131000       0.00580600       0.00736900       0.02234500
Pt       2.79665000       6.45888000      12.56108000       0.01571800       0.00813500       0.02683800
Pt       5.60627000       6.46954000      12.56922000      -0.00495300       0.00294600       0.01337400
Pt      -4.21262000       8.89093000      12.59022000       0.00407700       0.00130600      -0.00291400
Pt      -1.41042000       8.90397000      12.56114000       0.00507200      -0.00710200       0.02315400
Pt       1.39908000       8.89405000      12.56318000       0.00829600      -0.00259500       0.00655100
Pt       4.19939000       7.27987000      14.86512000       0.00845800      -0.01245900       0.02501900
Pt       4.20891000       8.90493000      12.56041000      -0.00724800      -0.01020300       0.02346700
Pt      -2.78540000       9.65930000      14.88139000       0.00503600       0.03262000      -0.00201000
Pt       0.00141000       9.70149000      14.86496000       0.00359600      -0.00633000       0.03634400
Pt       2.79261000       9.70197000      14.86464000      -0.00701200      -0.00506100       0.04191200
Pt       9.76129000       2.41943000      14.88236000       0.02321100      -0.02482400      -0.00483600
Pt       1.39748000       2.41642000      15.10091000      -0.00276600       0.00548300      -0.07868300
Pt       4.25809000       2.41997000      14.88080000      -0.02664500      -0.02357300       0.00186600
Pt       7.00961000       2.41158000      14.86493000      -0.00391600       0.00816600       0.02208200
Pt       8.39858000       4.85256000      14.87881000       0.01249800      -0.00727600       0.01178500
Pt      -0.03457000       4.89195000      14.88258000       0.03090000      -0.00749200       0.00492200
Pt       2.82992000       4.89234000      14.88169000      -0.03023500      -0.00463400       0.00627000
Pt       5.61818000       4.85340000      14.87639000      -0.01670300      -0.01036600       0.01471400
Pt       7.00818000       7.26217000      14.87932000       0.00095600       0.01208800       0.00796400
Pt      -1.40629000       7.27826000      14.86580000      -0.01258200      -0.01289700       0.02594700
Pt       5.61559000       8.08756000      10.31159000       0.00650200      -0.01139000      -0.00990200
Pt       0.01536000       1.62004000      12.66562000       0.02293000      -0.00729500       0.05455400
66
Lattice="11.224 0.0 0.0 -5.612 9.720269132 0.0 0.0 0.0 26.09777" Properties=species:S:1:pos:R:3:forces:R:3 energy=-387.22740581 pbc="T T T"
C        1.39762000       2.35669000      16.93994000       0.00195100       0.01150000      -0.03493500
O        1.39772000       2.31250000      18.09777000      -0.00097700       0.01758800      -0.03322300
Pt      -2.80851000       9.70604000       8.03536000       0.00462100       0.00419800      -0.01692300
Pt       0.00630000       9.69756000       8.00271000       0.00200800      -0.00030400      -0.04020400
Pt       2.80038000       9.69759000       8.00230000      -0.00234100      -0.00055300      -0.03974600
Pt       9.82625000       2.41297000       8.03547000      -0.00426900      -0.00211400      -0.02032200
Pt       1.40325000       2.41380000       8.05889000       0.00121100       0.00575600       0.05839200
Pt       4.20449000       2.41273000       8.03541000       0.00050800      -0.00095600      -0.02068900
Pt       7.01528000       2.40642000       8.01620000       0.00123700      -0.00058900      -0.03955700
Pt       8.41884000       4.83937000       8.01874000      -0.00122800      -0.00056100      -0.01455500
Pt       0.00263000       4.84074000       8.03563000       0.00121900      -0.00170400      -0.01886900
Pt       2.80442000       4.84089000       8.03530000      -0.00169300      -0.00201900      -0.01795000
Pt       5.61204000       4.83941000       8.01845000      -0.00025800      -0.00040600      -0.01549200
Pt       7.01544000       7.27046000       8.01831000       0.00138400      -0.00210100      -0.00951200