82
Lattice="11.223990791 0.0 0.0 5.611995395 9.720261156 0.0 0.0 0.0 29.886262579" Properties=species:S:1:pos:R:3:forces:R:3 energy=-511.16099794 pbc="T T T"
C        8.41799000       2.43007000      18.49926000       0.25962300       0.61051500      -2.75490600
C        9.82099000       0.00000000      18.49926000       0.74294500       0.34086400      -2.45149400
C       14.02999000       7.29020000      18.49926000      -0.09775200      -0.87638100      -2.42417900
C       11.22399000       8.10022000      18.27026000      -1.82832600      -1.80803300      -3.19253000
C        7.01499000       0.00000000      18.49926000       0.71985200       2.21472100      -2.11836300
C        5.61200000       6.48017000      18.27026000      -1.18932500       1.19922900      -2.96580300
C        1.40300000       2.43007000      18.72826000       0.11640600       0.24083400       0.33318500
C        7.01499000       4.86013000      18.49926000       1.87721800      -1.60135800      -2.33997000
C        7.01499000       8.91024000      18.27026000       0.80588300       0.27793600      -3.08343400
O        9.82099000       0.00000000      19.65726000       0.13251400      -0.05489800       1.05825900
O        7.01499000       0.00000000      19.65726000       1.02805100       1.35490200       0.83626600
O        8.41799000       2.43007000      19.65726000       0.05642400       0.04056800       1.30145100
O        7.01499000       8.91024000      19.42826000       0.14048700       0.07916500       2.95003900
O        1.40300000       2.43007000      19.88626000      -0.03507200      -0.03275500      -0.20963600
O        5.61200000       6.48017000      19.42826000      -1.61545500       1.73458600       2.72088600
O       11.22399000       8.10022000      19.42826000      -1.73500200      -1.80765700       2.91403600
O       14.02999000       7.29020000      19.65726000       0.00004400      -0.16636900       1.11509300
O        7.01499000       4.86013000      19.65726000       1.09645700      -1.34328200       1.03214800
Pt       8.41799000       6.48017000      14.58218000       0.07282900       0.11340900      -0.21849400
Pt      11.22399000       6.48017000      14.58218000       0.16683300       0.02190100      -0.27275000
Pt      15.43299000       8.91024000      14.58218000      -0.12963000       0.10650100      -0.44890700
Pt       7.01499000       8.91024000      14.58218000      -0.08082500       0.09965600      -0.52396300
Pt       9.82099000       8.91024000      14.58218000       0.04799600       0.24340800      -0.33450300
Pt      12.62699000       8.91024000      14.58218000       0.17921300       0.06060700      -0.68614200
Pt       0.00000000       0.00000000      16.87326000      -0.45662400      -0.08712300       1.40054800
Pt       2.80600000       0.00000000      16.87326000       0.04065500      -0.08288900       0.39224100
Pt       5.61200000       0.00000000      16.87326000       0.00373700       0.53420000       1.35367300
Pt       8.41799000       0.00000000      16.87326000      -0.03889500      -0.09506900       1.85332000
Pt       7.01499000       2.43007000      16.87326000       0.30485200      -0.02546000       0.93495900
Pt       4.20900000       2.43007000      16.87326000       0.09358000       0.05467600      -0.33890900
Pt       9.82099000       2.43007000      16.87326000      -0.60247400       0.46335900       0.98963800
Pt       2.80600000       4.86013000      16.87326000      -0.07091200      -0.32412800      -0.31999300
Pt       5.61200000       4.86013000      16.87326000       0.12932800      -0.60688200       1.41259700
Pt       8.41799000       4.86013000      16.87326000      -0.25625400       0.22255800       1.16810300
Pt      11.22399000       4.86013000      16.87326000      -0.15733400       0.01298600      -0.31116000
Pt       5.61200000       6.48017000      14.58218000      -0.11982600       0.13412600      -0.62077700
Pt       7.01499000       7.29020000      16.87326000       0.26089800       0.24176500       0.60667000
Pt       9.82099000       7.29020000      16.87326000       0.22671800      -0.17086000       0.55308700
Pt      12.62699000       7.29020000      16.87326000       0.40418200      -0.96799100       1.30068200
Pt       1.40300000       2.43007000      16.87326000       0.15529000       0.40006400       0.81439900
Pt       4.20900000       7.29020000      16.87326000      -0.53618100      -0.73616100       1.33272300
Pt       0.00000000       0.00000000      10.00000000       0.03233400       0.02031000      -0.07306100
Pt       7.01499000       4.05011000      14.58218000      -0.09567500      -0.11639300      -0.71837000
Pt       1.40300000       0.81002000      12.29109000       0.08123000       0.06960300       0.15633100
Pt      12.62699000       7.29020000      10.00000000      -0.02127100       0.00042700      -0.16807600
Pt       9.82099000       7.29020000      10.00000000       0.01455100       0.01170100      -0.19243600
Pt       7.01499000       7.29020000      10.00000000       0.01636300      -0.02908600      -0.16464900
Pt       4.20900000       7.29020000      10.00000000      -0.01076200      -0.00990700      -0.07768100
Pt      11.22399000       4.86013000      10.00000000       0.01226400       0.01568600      -0.15248800
Pt       8.41799000       4.86013000      10.00000000      -0.00680900      -0.00840400      -0.18934200
Pt       4.20900000       0.81002000      12.29109000      -0.01728800      -0.05954000       0.06408800
Pt       5.61200000       4.86013000      10.00000000       0.00270100       0.03124800      -0.19088300
Pt       9.82099000       2.43007000      10.00000000       0.02172400       0.03479900      -0.10084500
Pt       7.01499000       2.43007000      10.00000000       0.00432200       0.00537700      -0.10168600
Pt       4.20900000       2.43007000      10.00000000      -0.01924800       0.02012500      -0.01175800
Pt       1.40300000       2.43007000      10.00000000      -0.01121800      -0.01638600      -0.18979200
Pt       8.41799000       0.00000000      10.00000000      -0.03705200      -0.02658100      -0.11878500
Pt       5.61200000       0.00000000      10.00000000       0.02940300      -0.04093700      -0.11462200
Pt       2.80600000       0.00000000      10.00000000      -0.02098600      -0.04397300      -0.15045400
Pt       2.80600000       4.86013000      10.00000000      -0.02879400       0.01720500      -0.08664400
Pt       7.01499000       0.81002000      12.29109000      -0.02278200       0.05745400       0.17125200
Pt       9.82099000       0.81002000      12.29109000      -0.02384300      -0.00528400       0.12339900
Pt       2.80600000       3.24009000      12.29109000      -0.08720400       0.02883300       0.11757000
Pt       4.20900000       4.05011000      14.58218000       0.17924000       0.15132300       0.04930200
Pt      12.62699000       4.05011000      14.58218000       0.00981900      -0.16792600      -0.24326200
Pt       8.41799000       1.62004000      14.58218000       0.00080300      -0.09655200      -0.75309500
Pt       5.61200000       1.62004000      14.58218000       0.09120500      -0.02517600       0.09028200
Pt       2.80600000       1.62004000      14.58218000      -0.13419300       0.03258300      -0.20726400
Pt      11.22399000       1.62004000      14.58218000       0.02339200       0.20346100      -0.06253500
Pt      14.02999000       8.10022000      12.29109000      -0.01544100      -0.07276100       0.18070400
Pt      11.22399000       8.10022000      12.29109000       0.00572200      -0.07705100       0.16978100
Pt       8.41799000       8.10022000      12.29109000      -0.00100200      -0.08409900       0.07155500
Pt       5.61200000       8.10022000      12.29109000       0.03011200      -0.02808800       0.16616900
Pt      12.62699000       5.67015000      12.29109000      -0.04694100       0.05010000       0.02329500
Pt       9.82099000       5.67015000      12.29109000      -0.03817800      -0.05825100      -0.01444200
Pt       7.01499000       5.67015000      12.29109000      -0.01574300      -0.04506000       0.02441400
Pt       4.20900000       5.67015000      12.29109000       0.06196100      -0.11465600       0.09293600
Pt      11.22399000       3.24009000      12.29109000       0.07919900       0.01860800       0.13305700
Pt       8.41799000       3.24009000      12.29109000       0.05097700       0.06382100       0.10497800
Pt       5.61200000       3.24009000      12.29109000       0.02137100       0.09998700       0.11000800
Pt       9.82099000       4.05011000      14.58218000      -0.08189000       0.14005500      -0.10704300
Pt      14.02999000       6.48017000      14.58218000      -0.14449900       0.03816300      -0.41799600
82
Lattice="11.223990791 0.0 0.0 5.611995395 9.720261156 0.0 0.0 0.0 29.886262579" Properties=species:S:1:pos:R:3:forces:R:3 energy=-512.50545917 pbc="T T T"
C        7.01499000       0.81002000      18.27026000      -0.72193700       0.19063900      -3.35631300
C        7.01499000       8.91024000      18.27026000      -0.54301500       2.56154000      -2.90351300
C       14.02999000       7.29020000      18.49926000      -0.59143500       0.24356900      -2.55390000
C       12.62699000       4.86013000      18.49926000      -0.80487500      -0.22919800      -2.73779300
C        4.20900000       4.05011000      18.27026000       0.17912100      -0.79949200      -2.97588500
C        8.41799000       7.29020000      18.49926000       2.87429400      -1.89833900      -2.24717200
C        5.61200000       6.48017000      18.27026000      -0.18828300      -0.44729400      -2.71757000
C        9.82099000       2.43007000      18.72826000       0.04572300       1.24287700       0.64413100
C        9.82099000       0.00000000      18.49926000       0.24375100      -0.54356100      -2.46266500
O        7.01499000       8.91024000      19.42826000      -1.52319600       1.83314700       2.70664700
O        4.20900000       4.05011000      19.42826000       0.00504900      -0.11710700       2.86326100
O        7.01499000       0.81002000      19.42826000      -0.07124400       0.03808500       3.11541100
O        9.82099000       0.00000000      19.65726000       0.04349300      -0.72765000       1.01756700
O        5.61200000       6.48017000      19.42826000       0.05428200       0.01385700       2.67364500
O        8.41799000       7.29020000      19.65726000       1.08925500      -1.45115000       0.98228000
O       12.62699000       4.86013000      19.65726000      -0.06447000      -0.11661100       1.29490300
O       14.02999000       7.29020000      19.65726000      -0.00979100      -0.03382600       1.15773600
O        9.82099000       2.43007000      19.88626000       0.01865800       0.69417300      -0.31761900
Pt       8.41799000       6.48017000      14.58218000      -0.08114500      -0.04919900      -0.61001500
Pt      11.22399000       6.48017000      14.58218000      -0.03079900       0.23101800       0.04432700
Pt      15.43299000       8.91024000      14.58218000      -0.12424400       0.01006900      -0.48970900
Pt       7.01499000       8.91024000      14.58218000      -0.11310700       0.11705900      -0.59086700
Pt       9.82099000       8.91024000      14.58218000       0.15372100       0.10976200      -0.17173900
Pt      12.62699000       8.91024000      14.58218000       0.08013300       0.08280800      -0.37785300
Pt       0.00000000       0.00000000      16.87326000      -0.18918800      -0.02157400       1.43207500
Pt       2.80600000       0.00000000      16.87326000       0.14373200       0.52755000       0.45629000
Pt       5.61200000       0.00000000      16.87326000      -0.20445900       0.04209600       0.47376900
Pt       8.41799000       0.00000000      16.87326000       0.36466400      -0.09776700       1.20857900
Pt       7.01499000       2.43007000      16.87326000      -0.16888700       0.14632000       0.34280700
Pt       4.20900000       2.43007000      16.87326000      -0.14941800      -0.01873200       0.45398200
Pt       9.82099000       2.43007000      16.87326000       0.13720400       0.75741300       0.62125900
Pt       2.80600000       4.86013000      16.87326000      -0.66529000      -0.67745600       1.23425600
Pt       5.61200000       4.86013000      16.87326000       0.24440500      -0.22839600       0.80405400
Pt       8.41799000       4.86013000      16.87326000       0.07232400      -0.33069500      -0.39777200
Pt      11.22399000       4.86013000      16.87326000       0.48780000       0.12865900       1.15972000
Pt       5.61200000       6.48017000      14.58218000       0.09352000       0.24877300      -0.31963500
Pt       7.01499000       7.29020000      16.87326000       0.44371500      -0.60990000       1.28466000
Pt       9.82099000       7.29020000      16.87326000      -0.37885500      -0.05728300       1.24154100
Pt      12.62699000       7.29020000      16.87326000       0.22470100       0.03040800       1.04418900
Pt       1.40300000       2.43007000      16.87326000       0.23497200      -0.25101000      -0.44590000
Pt       4.20900000       7.29020000      16.87326000      -0.55656500      -0.38799100       1.18961200
Pt       0.00000000       0.00000000      10.00000000      -0.02989200       0.01809500      -0.08663700
Pt       7.01499000       4.05011000      14.58218000      -0.07453500      -0.11828700      -0.09346600
Pt       1.40300000       0.81002000      12.29109000       0.00616400       0.01627200       0.05274400
Pt      12.62699000       7.29020000      10.00000000      -0.01576600      -0.04940400      -0.09935800
Pt       9.82099000       7.29020000      10.00000000      -0.02909900       0.01472400      -0.19817500
Pt       7.01499000       7.29020000      10.00000000       0.02792600       0.01114400      -0.19923600
Pt       4.20900000       7.29020000      10.00000000       0.01639700      -0.01115100      -0.05959700
Pt      11.22399000       4.86013000      10.00000000       0.01231400       0.02994000      -0.15749300
Pt       8.41799000       4.86013000      10.00000000       0.00149600      -0.01951800      -0.16559200
Pt       4.20900000       0.81002000      12.29109000      -0.02594600       0.01546800       0.15597300
Pt       5.61200000       4.86013000      10.00000000       0.01169900       0.01841600      -0.03285400
Pt       9.82099000       2.43007000      10.00000000       0.01283400      -0.00243100      -0.17104300
Pt       7.01499000       2.43007000      10.00000000       0.00814100      -0.02801800      -0.16608900
Pt       4.20900000       2.43007000      10.00000000      -0.00742800       0.00717200      -0.08470500
Pt       1.40300000       2.43007000      10.00000000      -0.00633300       0.02395000      -0.11251100
Pt       8.41799000       0.00000000      10.00000000       0.00279500       0.03650600      -0.12198000
Pt       5.61200000       0.00000000      10.00000000       0.00193100       0.01149800      -0.13353800
Pt       2.80600000       0.00000000      10.00000000       0.02615000      -0.04873800      -0.10700500
Pt       2.80600000       4.86013000      10.00000000      -0.01159600      -0.00069900      -0.18997400
Pt       7.01499000       0.81002000      12.29109000      -0.01634200      -0.03361200       0.07769300
Pt       9.82099000       0.81002000      12.29109000       0.04041000       0.05898500       0.20549000
Pt       2.80600000       3.24009000      12.29109000      -0.03908000       0.00930200       0.06735700
Pt       4.20900000       4.05011000      14.58218000      -0.15982200       0.08086700      -0.46467000
Pt      12.62699000       4.05011000      14.58218000       0.05569800      -0.04203900      -0.54408000
Pt       8.41799000       1.62004000      14.58218000       0.14764500       0.15214800      -0.54926100
Pt       5.61200000       1.62004000      14.58218000      -0.09181300       0.01624300      -0.46297400
Pt       2.80600000       1.62004000      14.58218000       0.01493300      -0.00340700      -0.23759100
Pt      11.22399000       1.62004000      14.58218000      -0.09074100       0.07987100      -0.20642400
Pt      14.02999000       8.10022000      12.29109000      -0.00430200       0.03135600       0.12507800
Pt      11.22399000       8.10022000      12.29109000      -0.06051400      -0.05385600       0.07993000
Pt       8.41799000       8.10022000      12.29109000      -0.02043000      -0.11010700       0.10243700
Pt       5.61200000       8.10022000      12.29109000       0.07842600      -0.02546300       0.13077400
Pt      12.62699000       5.67015000      12.29109000       0.00930900      -0.10235100       0.12183000
Pt       9.82099000       5.67015000      12.29109000       0.03225300      -0.01978000      -0.00440500
Pt       7.01499000       5.67015000      12.29109000       0.07616700       0.04893200       0.07929600
Pt       4.20900000       5.67015000      12.29109000      -0.07606200      -0.04868600       0.17842800
Pt      11.22399000       3.24009000      12.29109000      -0.10629000       0.03055500       0.08495700
Pt       8.41799000       3.24009000      12.29109000      -0.00984800       0.02070500       0.00302700
Pt       5.61200000       3.24009000      12.29109000       0.10488000      -0.00019900       0.13771900
Pt       9.82099000       4.05011000      14.58218000       0.11312100      -0.03578200      -0.07229600
Pt      14.02999000       6.48017000      14.58218000       0.02083700      -0.13421200      -0.65256000
82
Lattice="11.223990791 0.0 0.0 5.611995395 9.720261156 0.0 0.0 0.0 29.657262579" Properties=species:S:1:pos:R:3:forces:R:3 energy=-513.10393524 pbc="T T T"
C        5.61200000       3.24009000      18.27026000       1.15108200      -1.37278800      -2.89428500
C        4.20900000       4.86013000      18.49926000      -1.52129500       1.43940700      -1.96928700
C        8.41799000       3.24009000      18.27026000       0.64293100       0.07415100      -3.09386700
C        4.20900000       0.81002000      18.27026000      -0.12425900       0.01928000      -2.76378500
C       11.22399000       8.10022000      18.27026000      -0.29137400      -0.42418100      -2.99744500
C        1.40300000       0.00000000      18.49926000      -0.31256400       0.40152500      -2.62423600
C       14.02999000       7.29020000      18.49926000      -0.51422200       0.51804700      -2.49750900
C        5.61200000       7.29020000      18.49926000       0.90073200       0.09842700      -2.61997300
C       12.62699000       4.05011000      18.27026000      -0.63282800      -0.25604400      -3.12571300
O        4.20900000       4.86013000      19.65726000      -1.15252800       1.22689000       0.78116800
O       11.22399000       8.10022000      19.42826000      -0.03671900      -0.06869600       2.81844800
O        5.61200000       3.24009000      19.42826000       1.58627000      -1.75833400       2.63290900
O       12.62699000       4.05011000      19.42826000      -0.08470700      -0.02814000       2.95396300
O       14.02999000       7.29020000      19.65726000      -0.08972100       0.06784100       1.02634500
O        1.40300000       0.00000000      19.65726000       0.04332700       0.06072600       1.19610200
O        4.20900000       0.81002000      19.42826000      -0.03078400       0.04919400       2.67078800
O        8.41799000       3.24009000      19.42826000       0.12738600       0.01951900       2.88816000
O        5.61200000       7.29020000      19.65726000       0.01518900      -0.01320000       1.14065800
Pt       8.41799000       6.48017000      14.58218000      -0.01737500       0.06928600       0.06851000
Pt      11.22399000       6.48017000      14.58218000       0.12220400      -0.01356200      -0.28621200
Pt      15.43299000       8.91024000      14.58218000       0.12220000       0.13609200      -0.26010900
Pt       7.01499000       8.91024000      14.58218000       0.20081700       0.01971500      -0.58241600
Pt       9.82099000       8.91024000      14.58218000      -0.22185200       0.08211400      -0.52111100
Pt      12.62699000       8.91024000      14.58218000      -0.12980700       0.13198400      -0.46857400
Pt       0.00000000       0.00000000      16.87326000       0.41005500       0.52691200       1.08035500
Pt       2.80600000       0.00000000      16.87326000      -0.72182400      -0.15708700       1.45387000
Pt       5.61200000       0.00000000      16.87326000       0.17730700       0.00364600       0.74380700
Pt       8.41799000       0.00000000      16.87326000       0.18971800       0.43749200      -0.36958400
Pt       7.01499000       2.43007000      16.87326000       0.13828700      -0.22952000       0.81300000
Pt       4.20900000       2.43007000      16.87326000       0.13746500      -0.37612800       0.53855000
Pt       9.82099000       2.43007000      16.87326000      -0.14824000      -0.23030700       0.46837500
Pt       2.80600000       4.86013000      16.87326000       0.37062100      -0.55366500       1.29435500
Pt       5.61200000       4.86013000      16.87326000      -0.24357900      -0.00816200       1.10030000
Pt       8.41799000       4.86013000      16.87326000       0.37789800       0.35408000       0.45465100
Pt      11.22399000       4.86013000      16.87326000      -0.01219500      -0.21942600       0.42795500
Pt       5.61200000       6.48017000      14.58218000      -0.07378000      -0.12795300      -0.36712900
Pt       7.01499000       7.29020000      16.87326000      -0.27302700      -0.55293100       1.06872400
Pt       9.82099000       7.29020000      16.87326000      -0.11038200      -0.44967300       0.43903600
Pt      12.62699000       7.29020000      16.87326000       0.49870100       0.04563100       1.52887100
Pt       1.40300000       2.43007000      16.87326000      -0.39971200       0.43244400       0.33752500
Pt       4.20900000       7.29020000      16.87326000      -0.03481500       0.36984200       2.13169000
Pt       0.00000000       0.00000000      10.00000000       0.00800300       0.00053000      -0.18230100
Pt       7.01499000       4.05011000      14.58218000      -0.15042700       0.23774200      -0.55166000
Pt       1.40300000       0.81002000      12.29109000      -0.00385400      -0.06917600       0.05206300
Pt      12.62699000       7.29020000      10.00000000       0.00854300      -0.02996900      -0.13131300
Pt       9.82099000       7.29020000      10.00000000       0.01206900       0.01329100      -0.00947400
Pt       7.01499000       7.29020000      10.00000000      -0.01709700       0.00749300      -0.03667600
Pt       4.20900000       7.29020000      10.00000000       0.01076300      -0.00102500      -0.16869200
Pt      11.22399000       4.86013000      10.00000000       0.01223700      -0.03454100      -0.13545000
Pt       8.41799000       4.86013000      10.00000000      -0.01376100      -0.05277300      -0.13622800
Pt       4.20900000       0.81002000      12.29109000      -0.07323700      -0.06118400       0.11911200
Pt       5.61200000       4.86013000      10.00000000      -0.00601600       0.00060000      -0.14973200
Pt       9.82099000       2.43007000      10.00000000      -0.00966200      -0.00948400      -0.18050900
Pt       7.01499000       2.43007000      10.00000000       0.00870600      -0.00402300      -0.11684800
Pt       4.20900000       2.43007000      10.00000000       0.00846900       0.00278400      -0.04173500
Pt       1.40300000       2.43007000      10.00000000      -0.03035900      -0.01765400      -0.07002600
Pt       8.41799000       0.00000000      10.00000000      -0.00117800       0.01474100      -0.08132900
Pt       5.61200000       0.00000000      10.00000000       0.01673200       0.01518800      -0.09584800
Pt       2.80600000       0.00000000      10.00000000      -0.01166900       0.02106600      -0.16381100
Pt       2.80600000       4.86013000      10.00000000      -0.01142500       0.03610500      -0.09004300
Pt       7.01499000       0.81002000      12.29109000       0.02494400       0.03982400       0.07159300
Pt       9.82099000       0.81002000      12.29109000       0.08287900      -0.01009600      -0.05078700
Pt       2.80600000       3.24009000      12.29109000       0.01497300       0.00827400       0.13338800
Pt       4.20900000       4.05011000      14.58218000      -0.11237600      -0.15196800      -0.71202600
Pt      12.62699000       4.05011000      14.58218000       0.13379700       0.11055600      -0.42309700
Pt       8.41799000       1.62004000      14.58218000      -0.10329800      -0.03193400      -0.32951400
Pt       5.61200000       1.62004000      14.58218000       0.21663700      -0.11656600      -0.50812000
Pt       2.80600000       1.62004000      14.58218000       0.06699200       0.12091700      -0.43106200
Pt      11.22399000       1.62004000      14.58218000      -0.14308900       0.07047500      -0.28938700
Pt      14.02999000       8.10022000      12.29109000       0.04992800      -0.04406700       0.04329700
Pt      11.22399000       8.10022000      12.29109000       0.08520500       0.04207700       0.17304600
Pt       8.41799000       8.10022000      12.29109000      -0.05004500       0.03818100       0.08701400
Pt       5.61200000       8.10022000      12.29109000      -0.12230400       0.06137100       0.06399000
Pt      12.62699000       5.67015000      12.29109000      -0.03963500      -0.03469300       0.15718000
Pt       9.82099000       5.67015000      12.29109000      -0.04058400      -0.02158200       0.06884000
Pt       7.01499000       5.67015000      12.29109000       0.00205500      -0.04400800       0.05646600
Pt       4.20900000       5.67015000      12.29109000       0.08988700       0.03296800       0.04123300
Pt      11.22399000       3.24009000      12.29109000      -0.07327900      -0.03043800       0.06998200
Pt       8.41799000       3.24009000      12.29109000       0.01274200      -0.07031700       0.13771900
Pt       5.61200000       3.24009000      12.29109000       0.02339800       0.08143000       0.08757100
Pt       9.82099000       4.05011000      14.58218000       0.10151800       0.05414500      -0.50647400
Pt      14.02999000       6.48017000      14.58218000      -0.01178400       0.08128900      -0.38723500
82
Lattice="11.223990791 0.0 0.0 5.611995395 9.720261156 0.0 0.0 0.0 29.657262579" Properties=species:S:1:pos:R:3:forces:R:3 energy=-514.78915217 pbc="T T T"
C       12.62699000       4.86013000      18.49926000      -0.54534100      -0.32672400      -2.50721200
C       14.02999000       7.29020000      18.49926000      -0.00047400       0.99909900      -2.81733600
C        2.80600000       1.62004000      18.27026000       0.40076200       0.35248100      -2.96141500
C        7.01499000       4.86013000      18.49926000       0.32220800      -0.06838400      -2.64662000
C       11.22399000       1.62004000      18.27026000      -0.76259900      -0.16512600      -3.09760500
C        9.82099000       8.91024000      18.27026000       0.19781800      -0.43791300      -2.58195900
C        4.20900000       4.86013000      18.49926000       0.25771200      -0.30806200      -2.64041900
C        7.01499000       0.81002000      18.27026000       0.12585400       0.20894800      -3.09600700
C        9.82099000       5.67015000      18.27026000      -0.01465800       0.15876600      -2.84879200
O       14.02999000       7.29020000      19.65726000      -0.00159800       0.13503100       1.32356900
O       11.22399000       1.62004000      19.42826000      -0.10758300       0.00361300       2.89095600
O       12.62699000       4.86013000      19.65726000      -0.07703100      -0.12262400       1.00016100
O        9.82099000       5.67015000      19.42826000       0.00306500       0.01105400       2.79675000
O        4.20900000       4.86013000      19.65726000       0.05734600      -0.10848500       1.03429800
O        9.82099000       8.91024000      19.42826000       0.02325900      -0.05954100       2.71952600
O        7.01499000       4.86013000      19.65726000       0.02023500       0.00003200       1.10224600
O        2.80600000       1.62004000      19.42826000       0.08078900       0.14384600       2.78390800
O        7.01499000       0.81002000      19.42826000       0.07427400       0.00590000       2.98690400
Pt       8.41799000       6.48017000      14.58218000       0.04386100       0.03884100      -0.55611100
Pt      11.22399000       6.48017000      14.58218000       0.12727100       0.22112000      -0.34355900
Pt      15.43299000       8.91024000      14.58218000      -0.07525800       0.06468800      -0.28885700
Pt       7.01499000       8.91024000      14.58218000       0.04221700       0.00437300      -0.21341700
Pt       9.82099000       8.91024000      14.58218000       0.10108700      -0.06480700      -0.49074400
Pt      12.62699000       8.91024000      14.58218000      -0.03106400      -0.06128800      -0.57594300
Pt       0.00000000       0.00000000      16.87326000      -0.10126600      -0.20216000       0.46915600
Pt       2.80600000       0.00000000      16.87326000      -0.01368400      -0.20812700       0.71855400
Pt       5.61200000       0.00000000      16.87326000      -0.00573500      -0.11322100       0.56717000
Pt       8.41799000       0.00000000      16.87326000       0.00085500       0.21457700       0.40660000
Pt       7.01499000       2.43007000      16.87326000       0.15436700      -0.31088500       0.31550600
Pt       4.20900000       2.43007000      16.87326000      -0.23115700      -0.20279000       0.35998000
Pt       9.82099000       2.43007000      16.87326000       0.16079000      -0.28911100       0.34734700
Pt       2.80600000       4.86013000      16.87326000       0.00378300      -0.50200400       2.09261500
Pt       5.61200000       4.86013000      16.87326000       0.07913600      -0.22021000       2.43291800