22
Lattice="5.612 0.0 0.0 -2.806 4.860134566 0.0 0.0 0.0 28.32549" Properties=species:S:1:pos:R:3:forces:R:3 energy=-133.31312485 pbc="T T T"
C        1.32623000       2.46079000      19.16927000       0.01372800      -0.00228400      -0.10624700
O        1.27020000       2.48513000      20.32549000       0.00924700      -0.00306400       0.09219400
Pt       2.80532000       1.62047000       8.00039000      -0.01369000       0.01001700       0.03190100
Pt      -1.40160000       4.04961000       8.00918000       0.00057300      -0.00098800       0.06029800
Pt       1.40378000       4.04750000       8.00000000      -0.00037900      -0.01687900       0.03189800
Pt       2.80618000       4.85955000      10.31201000      -0.02055600       0.01017300       0.02135800
Pt      -0.00051000       4.85992000      10.31306000       0.02149300       0.01303500       0.01594200
Pt       4.20854000       2.43001000      10.31297000       0.00321100      -0.01904600       0.01590700
Pt       1.40253000       2.42980000      10.32107000       0.00109400       0.00303000       0.02131500
Pt       1.40171000       0.81294000      12.60265000      -0.00410200      -0.01381100      -0.02282300
Pt       0.00301000       1.62115000       8.00001000       0.01306500       0.00951800       0.03038300
Pt       2.80187000       3.23801000      12.60308000       0.00688500       0.01289000      -0.02675000
Pt       0.00591000       1.62421000      14.87990000       0.00433700       0.00664300       0.01029500
Pt       2.79176000       1.62660000      14.88892000      -0.01649800       0.01359300       0.00347900
Pt      -1.40393000       4.04920000      14.85624000      -0.00490600       0.00044400      -0.01718400
Pt       1.40096000       4.04041000      14.88119000      -0.00433800      -0.01734000       0.00703900
Pt      -2.80395000       4.85757000      17.15015000      -0.00529900      -0.00128500      -0.05938600
Pt       0.00161000       4.85829000      17.15194000       0.00764900       0.00411600      -0.05622600
Pt      -1.40199000       2.42853000      17.15171000      -0.00225400      -0.01325500      -0.05731500
Pt       1.40739000       2.42590000      17.33056000       0.00251400      -0.00056000       0.08433700
Pt       4.20621000       0.81052000      12.57218000      -0.00430300      -0.00068500      -0.06298600
Pt       0.00055000       3.23863000      12.60092000      -0.00747300       0.00573800      -0.01742900
22
Lattice="5.612 0.0 0.0 -2.806 4.860134566 0.0 0.0 0.0 28.30842" Properties=species:S:1:pos:R:3:forces:R:3 energy=-133.36320733 pbc="T T T"
C        1.32568000       2.46047000      19.14973000      -0.01441800       0.01060400       0.33705500
O        1.26592000       2.48696000      20.30842000       0.02856300      -0.01176800      -0.18000700
Pt       2.80498000       1.62101000       8.00005000      -0.01401000       0.00747100      -0.04428400
Pt      -1.40191000       4.04998000       8.00578000       0.00192500      -0.00168700       0.01568600
Pt       1.40362000       4.04775000       8.00014000      -0.00076900      -0.01673800      -0.04738400
Pt      -2.80545000       4.85940000      10.30443000      -0.00205300       0.00027400       0.05106300
Pt      -0.00089000       4.85967000      10.30527000       0.00286000       0.00321200       0.05566200
Pt      -1.40333000       2.43068000      10.30512000      -0.00183600      -0.00249900       0.05713200
Pt       1.40266000       2.42984000      10.31463000      -0.00294500       0.00088200       0.01557800
Pt       1.40131000       0.81218000      12.59068000       0.00911000       0.00694400       0.03616200
Pt       0.00269000       1.62113000       8.00000000       0.01338400       0.00940600      -0.04489200
Pt       2.80254000       3.23890000      12.59099000      -0.00410000      -0.00766300       0.03666800
Pt       0.00503000       1.62368000      14.87521000       0.02026600       0.01522300      -0.01156500
Pt       2.79368000       1.62585000      14.88185000      -0.02597800       0.01583200       0.00028200
Pt      -1.40380000       4.04958000      14.85438000       0.00008100       0.00099100      -0.10837600
Pt       1.40115000       4.04115000      14.87642000      -0.00336700      -0.03119200      -0.01302600
Pt      -2.80297000       4.85636000      17.15457000      -0.01864300       0.00907900      -0.05798400
Pt       0.00214000       4.85787000      17.15611000       0.01898400       0.00786200      -0.05806000
Pt      -1.40137000       2.42828000      17.15596000      -0.00127800      -0.02507700      -0.05904000
Pt       1.40910000       2.42421000      17.31641000       0.00189100       0.00156400      -0.04283900
Pt       4.20696000       0.81034000      12.55879000      -0.01072600       0.00537800       0.02982600
Pt       0.00003000       3.23943000      12.59000000       0.00305900       0.00190300       0.03234200
22
Lattice="5.612 0.0 0.0 -2.806 4.860134566 0.0 0.0 0.0 28.32536" Properties=species:S:1:pos:R:3:forces:R:3 energy=-133.36605225 pbc="T T T"
C        1.32618000       2.46078000      19.16784000       0.00429300       0.00202400       0.07295200
O        1.26985000       2.48527000      20.32536000       0.01674400      -0.00632400      -0.05258300
Pt       2.80530000       1.62050000       8.00036000      -0.01353600       0.00995300      -0.00201300
Pt      -1.40165000       4.04964000       8.00909000       0.00241500      -0.00113500       0.03853300
Pt       1.40376000       4.04753000       8.00000000       0.00006100      -0.01650000      -0.00291000
Pt       2.80622000       4.85951000      10.31215000      -0.00399500       0.00203100       0.04209000
Pt      -0.00053000       4.85990000      10.31320000       0.00514900       0.00397700       0.04057500
Pt       4.20856000       2.43004000      10.31311000       0.00318600      -0.00166100       0.03922400
Pt       1.40254000       2.42980000      10.32124000       0.00170600       0.00362700       0.01427400
Pt       1.40174000       0.81287000      12.60256000      -0.00339000      -0.00449400      -0.03750700
Pt       0.00298000       1.62114000       8.00002000       0.01290100       0.00903400      -0.00437700
Pt       2.80194000       3.23802000      12.60299000      -0.00070100       0.00772800      -0.04139700
Pt       0.00587000       1.62416000      14.87981000       0.02028700       0.01643700       0.01088600
Pt       2.79186000       1.62655000      14.88874000      -0.03039700       0.02148600       0.00719400
Pt      -1.40391000       4.04921000      14.85646000      -0.00556500       0.00071600      -0.08352400
Pt       1.40100000       4.04044000      14.88106000      -0.00500200      -0.03585200       0.00819600
Pt      -2.80393000       4.85754000      17.15075000      -0.01200800       0.00287700      -0.00974700
Pt       0.00163000       4.85830000      17.15249000       0.01513400       0.00653100      -0.00537900
Pt      -1.40198000       2.42855000      17.15226000      -0.00083700      -0.02238800      -0.00748500
Pt       1.40751000       2.42577000      17.32973000       0.00053600       0.00024100       0.05232600
Pt       4.20631000       0.81051000      12.57195000      -0.00696600       0.00033800      -0.04660000
Pt       0.00052000       3.23868000      12.60086000      -0.00001300       0.00135200      -0.03272800
22
Lattice="5.612 0.0 0.0 -2.806 4.860134566 0.0 0.0 0.0 28.32654" Properties=species:S:1:pos:R:3:forces:R:3 energy=-133.36616327 pbc="T T T"
C        1.32638000       2.46077000      19.17025000       0.01201000      -0.00161200      -0.07412800
O        1.27066000       2.48494000      20.32654000       0.01035900      -0.00349500       0.07625200
Pt       2.80535000       1.62047000       8.00046000      -0.01325700       0.00987700      -0.00664400
Pt      -1.40153000       4.04956000       8.00920000       0.00261500      -0.00077900       0.03445900
Pt       1.40382000       4.04745000       8.00000000       0.00012900      -0.01617200      -0.00600200
Pt       2.80612000       4.85961000      10.31179000      -0.00261200      -0.00012100       0.04230300
Pt      -0.00047000       4.85995000      10.31283000       0.00077100       0.00088700       0.04517000
Pt       4.20853000       2.42996000      10.31272000      -0.00240900      -0.00069000       0.04506100
Pt       1.40251000       2.42981000      10.32086000      -0.00173700       0.00138200       0.02323600
Pt       1.40161000       0.81298000      12.60221000       0.00154300      -0.00466700      -0.03540700
Pt       0.00306000       1.62117000       8.00002000       0.01412000       0.00936100      -0.00663600
Pt       2.80178000       3.23810000      12.60262000       0.00090700       0.00615100      -0.03781200
Pt       0.00607000       1.62438000      14.88007000       0.01939400       0.01565800       0.00311200
Pt       2.79145000       1.62675000      14.88913000      -0.02949700       0.02138200      -0.00095100
Pt      -1.40397000       4.04921000      14.85585000      -0.00549700       0.00077900      -0.09096300
Pt       1.40090000       4.04021000      14.88140000      -0.00570000      -0.03435400       0.00156600
Pt      -2.80389000       4.85750000      17.14941000      -0.01208300       0.00402500       0.00185700
Pt       0.00155000       4.85824000      17.15122000       0.01492800       0.00752800       0.00004600
Pt      -1.40201000       2.42848000      17.15099000      -0.00087700      -0.02241000       0.00002400
Pt       1.40727000       2.42607000      17.33144000       0.00261000      -0.00117300       0.06219100
Pt       4.20604000       0.81051000      12.57189000      -0.00466000       0.00372800      -0.04497700
Pt       0.00055000       3.23861000      12.60046000      -0.00105600       0.00471500      -0.03176000
22
Lattice="5.612 0.0 0.0 -2.806 4.860134566 0.0 0.0 0.0 28.30993" Properties=species:S:1:pos:R:3:forces:R:3 energy=-133.36448306 pbc="T T T"
C        1.32563000       2.46055000      19.15447000       0.00516400       0.00191300      -0.03244000
O        1.26648000       2.48672000      20.30993000       0.01099300      -0.00379600       0.15196200
Pt       2.80495000       1.62101000       8.00006000      -0.01174800       0.00757400      -0.02442400
Pt      -1.40193000       4.04995000       8.00646000       0.00157600      -0.00048500       0.03179300
Pt       1.40364000       4.04766000       8.00012000      -0.00038900      -0.01385900      -0.02631200
Pt      -2.80541000       4.85938000      10.30781000      -0.00539200       0.00479100       0.02624500
Pt      -0.00088000       4.85967000      10.30866000       0.00121400       0.00219300       0.02841500
Pt      -1.40331000       2.43065000      10.30856000      -0.00215500      -0.00314400       0.02761200
Pt       1.40263000       2.42984000      10.31760000      -0.00231800       0.00087100       0.00237600
Pt       1.40140000       0.81205000      12.59316000       0.00758500       0.01054200       0.03568800
Pt       0.00277000       1.62114000       8.00000000       0.01093800       0.00607600      -0.02427100
Pt       2.80264000       3.23887000      12.59350000      -0.00788800      -0.00659200       0.03297600
Pt       0.00550000       1.62392000      14.87664000       0.01349400       0.01235000      -0.00619500
Pt       2.79298000       1.62619000      14.88374000      -0.01627900       0.01184900      -0.00385200
Pt      -1.40381000       4.04954000      14.85564000       0.00037600       0.00100300      -0.10400900
Pt       1.40118000       4.04061000      14.87781000      -0.00438200      -0.02383000      -0.00743700
Pt      -2.80301000       4.85644000      17.15514000      -0.02121500       0.01036200      -0.05300600
Pt       0.00198000       4.85797000      17.15660000       0.02010300       0.00752600      -0.05403400
Pt      -1.40154000       2.42839000      17.15645000      -0.00004700      -0.02557600      -0.05488000
Pt       1.40901000       2.42435000      17.31930000       0.00119800       0.00188700      -0.00986200
Pt       4.20695000       0.81038000      12.56122000      -0.00849500       0.00491200       0.03498600
Pt      -0.00009000       3.23945000      12.59233000       0.00766600      -0.00656700       0.02867100
22
Lattice="5.612 0.0 0.0 -2.806 4.860134566 0.0 0.0 0.0 28.33076" Properties=species:S:1:pos:R:3:forces:R:3 energy=-133.36518889 pbc="T T T"
C        1.32656000       2.46087000      19.17252000       0.00364100       0.00143400       0.17149500
O        1.27176000       2.48445000      20.33076000       0.01810200      -0.00694100      -0.10617700
Pt       2.80544000       1.62019000       8.00061000      -0.01230400       0.01214000      -0.01033500
Pt      -1.40135000       4.04942000       8.01007000       0.00054100      -0.00149900       0.02795600
Pt       1.40379000       4.04743000       8.00000000       0.00301700      -0.01731200      -0.00857100
Pt       2.80601000       4.85960000      10.31175000      -0.00328900       0.00007800       0.06660700
Pt      -0.00038000       4.86000000      10.31288000       0.00140700      -0.00039400       0.06945000
Pt       4.20843000       2.42974000      10.31278000      -0.00084000      -0.00248300       0.06750300
Pt       1.40252000       2.42977000      10.32042000      -0.00140900       0.00081800       0.04354800
Pt       1.40184000       0.81351000      12.60597000      -0.00436500      -0.01321300      -0.08307500
Pt       0.00309000       1.62122000       8.00005000       0.01566300       0.00603100      -0.00808400
Pt       2.80145000       3.23752000      12.60645000       0.00400200       0.01333400      -0.08218400
Pt       0.00557000       1.62404000      14.88040000       0.03968900       0.03055500       0.02168300
Pt       2.79188000       1.62640000      14.89004000      -0.05001200       0.03281400       0.01510900
Pt      -1.40400000       4.04902000      14.85563000      -0.00265000       0.00288500      -0.08007000
Pt       1.40084000       4.04094000      14.88173000      -0.00512000      -0.05839200       0.01650200
Pt      -2.80443000       4.85823000      17.14710000      -0.01214200       0.00374600       0.01700500
Pt       0.00154000       4.85838000      17.14909000       0.00934600       0.01230300       0.01791800
Pt      -1.40204000       2.42859000      17.14882000      -0.00700000      -0.01541500       0.01714600
Pt       1.40645000       2.42660000      17.33685000       0.01099000      -0.00456200      -0.00968800
Pt       4.20584000       0.81061000      12.57642000      -0.00239500      -0.00244900      -0.09405300
Pt       0.00096000       3.23821000      12.60389000      -0.00487100       0.00651900      -0.06968800
22
Lattice="5.612 0.0 0.0 -2.806 4.860134566 0.0 0.0 0.0 28.3031" Properties=species:S:1:pos:R:3:forces:R:3 energy=-133.35882965 pbc="T T T"
C        1.32548000       2.46044000      19.14672000       0.00417900       0.00270800      -0.09464400
O        1.26492000       2.48740000      20.30310000       0.02075800      -0.00831600       0.01294100
Pt       2.80521000       1.62093000       8.00000000      -0.02051900       0.01259100      -0.10490500
Pt      -1.40198000       4.05009000       8.00423000       0.00286800      -0.00181600      -0.03794700
Pt       1.40368000       4.04816000       8.00022000       0.00036300      -0.02656500      -0.10745600
Pt       2.80611000       4.85972000      10.29373000       0.00727900      -0.00526800       0.12769400
Pt      -0.00053000       4.85990000      10.29433000      -0.00755300      -0.00344300       0.13497800
Pt       4.20869000       2.43032000      10.29415000      -0.00126300       0.00722600       0.13516700
Pt       1.40271000       2.42981000      10.30534000      -0.00251400       0.00143800       0.10923800
Pt       1.40112000       0.81295000      12.58497000       0.00619500      -0.01385900       0.02046300
Pt       0.00233000       1.62096000       8.00014000       0.02400000       0.01457900      -0.10768400
Pt       2.80190000       3.23868000      12.58525000       0.01152500       0.00363400       0.02141700
Pt       0.00349000       1.62292000      14.87120000       0.04382100       0.02488800      -0.02444900
Pt       2.79583000       1.62479000      14.87679000      -0.05568900       0.02999800       0.00034700
Pt      -1.40376000       4.04964000      14.85038000      -0.00194400       0.00042200      -0.10915800
Pt       1.40102000       4.04289000      14.87258000       0.00064500      -0.05255500      -0.02689700
Pt      -2.80315000       4.85635000      17.15170000      -0.00870500       0.00416100      -0.05455900
Pt       0.00269000       4.85763000      17.15363000       0.01156300       0.00676300      -0.05636200
Pt      -1.40094000       2.42786000      17.15340000      -0.00336500      -0.01832800      -0.05727200
Pt       1.40936000       2.42402000      17.30240000      -0.00920200       0.00899200       0.20910800
Pt       4.20686000       0.81021000      12.55349000      -0.00845000       0.00427800      -0.00691500
Pt       0.00073000       3.23904000      12.58456000      -0.01399100       0.00847200       0.01689300
22
Lattice="5.612 0.0 0.0 -2.806 4.860134566 0.0 0.0 0.0 28.32964" Properties=species:S:1:pos:R:3:forces:R:3 energy=-133.36633065 pbc="T T T"
C        1.32683000       2.46072000      19.17318000       0.01386900      -0.00315000      -0.07650200
O        1.27204000       2.48438000      20.32964000       0.00998800      -0.00365600       0.06392500
Pt       2.80542000       1.62048000       8.00061000      -0.01364000       0.00771800      -0.01309100
Pt      -1.40131000       4.04941000       8.00925000       0.00261100      -0.00031100       0.02911100
Pt       1.40393000       4.04729000       8.00000000       0.00220500      -0.01561900      -0.01115500
Pt       2.80593000       4.85980000      10.31108000      -0.00092400      -0.00169000       0.03714100
Pt      -0.00038000       4.86004000      10.31210000      -0.00251400      -0.00082500       0.04171800
Pt       4.20848000       2.42982000      10.31196000      -0.00238500       0.00130000       0.04145100
Pt       1.40244000       2.42984000      10.32018000      -0.00120000       0.00129800       0.01853200
Pt       1.40129000       0.81310000      12.60085000       0.00127600      -0.00192200      -0.02014000
Pt       0.00323000       1.62121000       8.00000000       0.01512400       0.00611100      -0.01083200
Pt       2.80151000       3.23834000      12.60122000       0.00064000       0.00180600      -0.02070100
Pt       0.00657000       1.62488000      14.88052000       0.01256800       0.01262700      -0.01331400
Pt       2.79054000       1.62723000      14.88973000      -0.02220600       0.01637400      -0.01873400
Pt      -1.40407000       4.04925000      14.85464000      -0.00364700       0.00183200      -0.10564500
Pt       1.40071000       4.03962000      14.88201000      -0.00523100      -0.02882500      -0.01751800
Pt      -2.80372000       4.85729000      17.14715000      -0.01510100       0.00831200       0.01573800
Pt       0.00138000       4.85808000      17.14906000       0.01164000       0.01244700       0.01761800
Pt       4.20994000       2.42834000      17.14881000      -0.00365600      -0.01836100       0.01601500
Pt       1.40691000       2.42658000      17.33405000       0.00426200      -0.00582300       0.06829400
Pt       4.20553000       0.81049000      12.57097000       0.00032900       0.00412500      -0.02854900
Pt       0.00054000       3.23853000      12.59907000      -0.00400600       0.00623200      -0.01336200
